 Entering Gaussian System, Link 0=g16
 Input=ADS158081_cap_esp.gau
 Output=ADS158081_cap_esp.log
 Initial command:
 /home/pczbf/programs/g16/l1.exe "/home/pczbf/covmd/cdk12_example/Gau-446596.inp" -scrdir="/home/pczbf/covmd/cdk12_example/"
 Entering Link 1 = /home/pczbf/programs/g16/l1.exe PID=    446598.
  
 Copyright (c) 1988,1990,1992,1993,1995,1998,2003,2009,2016,
            Gaussian, Inc.  All Rights Reserved.
  
 This is part of the Gaussian(R) 16 program.  It is based on
 the Gaussian(R) 09 system (copyright 2009, Gaussian, Inc.),
 the Gaussian(R) 03 system (copyright 2003, Gaussian, Inc.),
 the Gaussian(R) 98 system (copyright 1998, Gaussian, Inc.),
 the Gaussian(R) 94 system (copyright 1995, Gaussian, Inc.),
 the Gaussian 92(TM) system (copyright 1992, Gaussian, Inc.),
 the Gaussian 90(TM) system (copyright 1990, Gaussian, Inc.),
 the Gaussian 88(TM) system (copyright 1988, Gaussian, Inc.),
 the Gaussian 86(TM) system (copyright 1986, Carnegie Mellon
 University), and the Gaussian 82(TM) system (copyright 1983,
 Carnegie Mellon University). Gaussian is a federally registered
 trademark of Gaussian, Inc.
  
 This software contains proprietary and confidential information,
 including trade secrets, belonging to Gaussian, Inc.
  
 This software is provided under written license and may be
 used, copied, transmitted, or stored only in accord with that
 written license.
  
 The following legend is applicable only to US Government
 contracts under FAR:
  
                    RESTRICTED RIGHTS LEGEND
  
 Use, reproduction and disclosure by the US Government is
 subject to restrictions as set forth in subparagraphs (a)
 and (c) of the Commercial Computer Software - Restricted
 Rights clause in FAR 52.227-19.
  
 Gaussian, Inc.
 340 Quinnipiac St., Bldg. 40, Wallingford CT 06492
  
  
 ---------------------------------------------------------------
 Warning -- This program may not be used in any manner that
 competes with the business of Gaussian, Inc. or will provide
 assistance to any competitor of Gaussian, Inc.  The licensee
 of this program is prohibited from giving any competitor of
 Gaussian, Inc. access to this program.  By using this program,
 the user acknowledges that Gaussian, Inc. is engaged in the
 business of creating and licensing software in the field of
 computational chemistry and represents and warrants to the
 licensee that it is not a competitor of Gaussian, Inc. and that
 it will not use this program in any manner prohibited above.
 ---------------------------------------------------------------
  

 Cite this work as:
 Gaussian 16, Revision A.03,
 M. J. Frisch, G. W. Trucks, H. B. Schlegel, G. E. Scuseria, 
 M. A. Robb, J. R. Cheeseman, G. Scalmani, V. Barone, 
 G. A. Petersson, H. Nakatsuji, X. Li, M. Caricato, A. V. Marenich, 
 J. Bloino, B. G. Janesko, R. Gomperts, B. Mennucci, H. P. Hratchian, 
 J. V. Ortiz, A. F. Izmaylov, J. L. Sonnenberg, D. Williams-Young, 
 F. Ding, F. Lipparini, F. Egidi, J. Goings, B. Peng, A. Petrone, 
 T. Henderson, D. Ranasinghe, V. G. Zakrzewski, J. Gao, N. Rega, 
 G. Zheng, W. Liang, M. Hada, M. Ehara, K. Toyota, R. Fukuda, 
 J. Hasegawa, M. Ishida, T. Nakajima, Y. Honda, O. Kitao, H. Nakai, 
 T. Vreven, K. Throssell, J. A. Montgomery, Jr., J. E. Peralta, 
 F. Ogliaro, M. J. Bearpark, J. J. Heyd, E. N. Brothers, K. N. Kudin, 
 V. N. Staroverov, T. A. Keith, R. Kobayashi, J. Normand, 
 K. Raghavachari, A. P. Rendell, J. C. Burant, S. S. Iyengar, 
 J. Tomasi, M. Cossi, J. M. Millam, M. Klene, C. Adamo, R. Cammi, 
 J. W. Ochterski, R. L. Martin, K. Morokuma, O. Farkas, 
 J. B. Foresman, and D. J. Fox, Gaussian, Inc., Wallingford CT, 2016.
 
 ******************************************
 Gaussian 16:  ES64L-G16RevA.03 25-Dec-2016
                20-Aug-2024 
 ******************************************
 ------------------------------------------
 # HF 6-31G* POP(MK) IOP(6/33=2) scf=direct
 ------------------------------------------
 1/38=1,172=1/1;
 2/12=2,17=6,18=5,40=1/2;
 3/5=1,6=6,7=1,11=9,25=1,30=1/1,2,3;
 4//1;
 5/5=2,38=5/2;
 6/7=2,8=2,9=2,10=2,15=8,20=1,28=1,33=2/1,2;
 99/5=1,9=1/99;
 ---
 cap
 ---
 Symbolic Z-matrix:
 Charge =  0 Multiplicity = 1
 C                     15.442    1.525    -26.601 
 C                     15.778    2.912    -26.028 
 C                     13.375    3.678    -25.754 
 C                     13.266    4.466    -27.077 
 C                     13.867    5.915    -26.927 
 C                     15.057    3.937    -23.965 
 C                     16.576    3.778    -23.909 
 C                     16.917    2.782    -24.998 
 C                     14.565   -0.74     -26.122 
 C                     15.892   -1.518    -26.157 
 C                     15.742   -2.993    -26.308 
 C                     16.246   -3.973    -25.5 
 C                     15.839   -5.239    -26.046 
 C                     15.975   -6.612    -25.701 
 C                     16.597   -7.081    -24.443 
 C                     16.697   -6.55     -23.132 
 C                     16.144   -5.35     -22.62 
 C                     16.486   -5.042    -21.287 
 C                     17.307   -5.93     -20.557 
 C                     17.287   -8.316    -24.243 
 C                     15.5     -7.566    -26.627 
 C                     14.875   -7.149    -27.817 
 C                     15.152   -4.963    -27.264 
 N                     14.647    3.525    -25.305 
 N                     14.816    0.656    -25.787 
 N                     17.764   -7.119    -21.025 
 N                     17.432   -7.359    -22.291 
 N                     17.763   -8.476    -22.997 
 N                     14.663   -5.863    -28.159 
 N                     15.071   -3.59     -27.36 
 O                     15.759    1.255    -27.757 
 O                     12.407    3.686    -24.992 
 H                     16.096    3.579    -26.83 
 H                     14.58     3.282    -23.233 
 H                     14.775    4.971    -23.76 
 H                     16.934    3.473    -22.926 
 H                     17.046    4.729    -24.159 
 H                     16.956    1.786    -24.556 
 H                     17.895    2.972    -25.44 
 H                     14.04    -0.811    -27.075 
 H                     13.903   -1.152    -25.36 
 H                     16.44    -1.316    -25.235 
 H                     16.525   -1.142    -26.959 
 H                     16.848   -3.812    -24.618 
 H                     15.496   -4.711    -23.191 
 H                     16.111   -4.141    -20.821 
 H                     17.56    -5.708    -19.529 
 H                     17.465   -9.104    -24.96 
 H                     15.599   -8.623    -26.431 
 H                     14.526   -7.888    -28.521 
 H                     14.619    0.935    -24.828 
 H                     14.6     -3.082    -28.101 
 H                     14.454    10.962   -31.609 
 C                     14.082    12.076   -30.723 
 C                     14.334    11.72    -29.254 
 O                     14.934    12.525   -28.547 
 N                     13.923    10.496   -28.837 
 C                     14.194    9.902    -27.512 
 C                     15.685    9.526    -27.382 
 O                     16.035    8.356    -27.485 
 N                     16.512    10.562   -27.176 
 C                     17.951    10.676   -27.387 
 H                     18.756    9.412    -27.075 
 H                     13.504    9.869    -29.514 
 H                     16.061    11.451   -27.005 
 H                     12.623    12.537   -31.023 
 H                     14.74     12.914   -30.959 
 H                     18.491    11.938   -26.662 
 H                     18.076    10.846   -28.459 
 C                     13.209    8.766    -27.064 
 S                     13.111    7.191    -28.016 
 H                     13.405    8.521    -26.02 
 H                     12.199    9.178    -27.068 
 H                     14.031    10.708   -26.794 
 H                     12.207    4.523    -27.323 
 H                     13.718    3.907    -27.892 
 H                     14.938    5.867    -27.125 
 H                     13.75     6.283    -25.906 
 
 Stoichiometry    C29H35N9O4S
 Framework group  C1[X(C29H35N9O4S)]
 Deg. of freedom   228
 Full point group                 C1      NOp   1
 Largest Abelian subgroup         C1      NOp   1
 Largest concise Abelian subgroup C1      NOp   1
                         Standard orientation:                         
 ---------------------------------------------------------------------
 Center     Atomic      Atomic             Coordinates (Angstroms)
 Number     Number       Type             X           Y           Z
 ---------------------------------------------------------------------
      1          6           0       -0.202968   -0.453367   -0.308578
      2          6           0       -1.388584    0.524801   -0.358540
      3          6           0       -2.316889   -0.062338    1.928326
      4          6           0       -3.383061   -1.073848    1.455803
      5          6           0       -4.694665   -0.338786    0.983911
      6          6           0       -2.003691    2.272494    1.188602
      7          6           0       -1.682089    2.922716   -0.156598
      8          6           0       -0.920039    1.873335   -0.939093
      9          6           0        2.010295   -0.952452    0.681964
     10          6           0        2.892899   -0.612505   -0.531660
     11          6           0        4.275541   -1.164784   -0.466735
     12          6           0        5.455235   -0.483538   -0.573999
     13          6           0        6.522134   -1.438714   -0.447954
     14          6           0        7.943910   -1.412304   -0.425499
     15          6           0        8.738662   -0.164309   -0.442426
     16          6           0        8.521532    1.152271    0.037319
     17          6           0        7.413221    1.657417    0.761492
     18          6           0        7.441985    3.041160    1.031947
     19          6           0        8.547644    3.810017    0.605497
     20          6           0       10.051251    0.002106   -0.981630
     21          6           0        8.617715   -2.652725   -0.401827
     22          6           0        7.888040   -3.855137   -0.352898
     23          6           0        5.916787   -2.725851   -0.355745
     24          7           0       -1.940027    0.828813    0.976056
     25          7           0        0.755013   -0.215933    0.605496
     26          7           0        9.645145    3.305560   -0.013056
     27          7           0        9.566137    2.001055   -0.263266
     28          7           0       10.528662    1.252934   -0.871170
     29          7           0        6.543577   -3.931998   -0.305846
     30          7           0        4.555298   -2.511453   -0.319861
     31          8           0       -0.162475   -1.395643   -1.096106
     32          8           0       -2.256135    0.197936    3.130948
     33          1           0       -2.179377    0.119226   -0.990499
     34          1           0       -1.256139    2.552823    1.933558
     35          1           0       -2.990691    2.583251    1.534962
     36          1           0       -1.133785    3.858859   -0.054241
     37          1           0       -2.611712    3.132404   -0.685401
     38          1           0        0.147354    2.034952   -0.785952
     39          1           0       -1.101617    1.944913   -2.011406
     40          1           0        1.816344   -2.023745    0.741882
     41          1           0        2.509783   -0.664986    1.607441
     42          1           0        2.955289    0.473096   -0.625312
     43          1           0        2.416597   -0.955864   -1.448453
     44          1           0        5.554134    0.579917   -0.733785
     45          1           0        6.601721    1.040113    1.100122
     46          1           0        6.631843    3.508677    1.574792
     47          1           0        8.583795    4.868863    0.823705
     48          1           0       10.676535   -0.740415   -1.455339
     49          1           0        9.696402   -2.695626   -0.409564
     50          1           0        8.414849   -4.796392   -0.345872
     51          1           0        0.674780    0.606873    1.199537
     52          1           0        3.851638   -3.234517   -0.214845
     53          1           0      -10.559611   -2.961975   -1.557584
     54          6           0      -11.483886   -2.074517   -0.834737
     55          6           0      -10.790205   -0.770571   -0.426406
     56          8           0      -11.354773    0.295002   -0.658122
     57          7           0       -9.553015   -0.875539    0.120704
     58          6           0       -8.658096    0.252921    0.448730
     59          6           0       -8.112562    0.903492   -0.839876
     60          8           0       -6.964271    0.677602   -1.203761
     61          7           0       -8.988092    1.682694   -1.492525
     62          6           0       -8.998158    2.131943   -2.880441
     63          1           0       -7.621102    2.437668   -3.474844
     64          1           0       -9.136090   -1.795560    0.202882
     65          1           0       -9.859122    1.857447   -1.009067
     66          1           0      -12.145953   -2.839621    0.351638
     67          1           0      -12.281610   -1.800769   -1.527271
     68          1           0      -10.008298    3.298625   -3.048790
     69          1           0       -9.385724    1.288753   -3.457096
     70          6           0       -7.558066   -0.045401    1.526860
     71         16           0       -6.248972   -1.300116    1.197476
     72          1           0       -7.071117    0.890356    1.801845
     73          1           0       -8.061770   -0.374536    2.436702
     74          1           0       -9.299094    1.006991    0.909413
     75          1           0       -3.600468   -1.721095    2.303772
     76          1           0       -2.973515   -1.731180    0.693441
     77          1           0       -4.582257   -0.072390   -0.067253
     78          1           0       -4.839471    0.593454    1.533014
 ---------------------------------------------------------------------
 Rotational constants (GHZ):           0.1856265           0.0167365           0.0160597
 Standard basis: 6-31G(d) (6D, 7F)
 There are   719 symmetry adapted cartesian basis functions of A   symmetry.
 There are   719 symmetry adapted basis functions of A   symmetry.
   719 basis functions,  1368 primitive gaussians,   719 cartesian basis functions
   160 alpha electrons      160 beta electrons
       nuclear repulsion energy      4740.5969911039 Hartrees.
 NAtoms=   78 NActive=   78 NUniq=   78 SFac= 1.00D+00 NAtFMM=   60 NAOKFM=T Big=T
 Integral buffers will be    131072 words long.
 Raffenetti 1 integral format.
 Two-electron integral symmetry is turned on.
 One-electron integrals computed using PRISM.
 NBasis=   719 RedAO= T EigKep=  4.17D-04  NBF=   719
 NBsUse=   719 1.00D-06 EigRej= -1.00D+00 NBFU=   719
 ExpMin= 1.17D-01 ExpMax= 2.19D+04 ExpMxC= 3.30D+03 IAcc=3 IRadAn=         5 AccDes= 0.00D+00
 Harris functional with IExCor=  205 and IRadAn=       5 diagonalized for initial guess.
 HarFok:  IExCor=  205 AccDes= 0.00D+00 IRadAn=         5 IDoV= 1 UseB2=F ITyADJ=14
 ICtDFT=  3500011 ScaDFX=  1.000000  1.000000  1.000000  1.000000
 FoFCou: FMM=F IPFlag=           0 FMFlag=      100000 FMFlg1=        2001
         NFxFlg=           0 DoJE=T BraDBF=F KetDBF=T FulRan=T
         wScrn=  0.000000 ICntrl=       500 IOpCl=  0 I1Cent=   200000004 NGrid=           0
         NMat0=    1 NMatS0=      1 NMatT0=    0 NMatD0=    1 NMtDS0=    0 NMtDT0=    0
 Petite list used in FoFCou.
 Requested convergence on RMS density matrix=1.00D-08 within 128 cycles.
 Requested convergence on MAX density matrix=1.00D-06.
 Requested convergence on             energy=1.00D-06.
 No special actions if energy rises.
 Integral accuracy reduced to 1.0D-05 until final iterations.
 Initial convergence to 1.0D-05 achieved.  Increase integral accuracy.
 SCF Done:  E(RHF) =  -2305.22222672     A.U. after   17 cycles
            NFock= 17  Conv=0.48D-08     -V/T= 2.0028
 SCF density gives NOpUse=  1 NOpAll=  1.

 **********************************************************************

            Population analysis using the SCF density.

 **********************************************************************

 Orbital symmetries:
 BldTbl:  Degeneracy threshold= 1.00D-02
       Occupied  (A) (A) (A) (A) (A) (A) (A) (A) (A) (A) (A) (A)
                 (A) (A) (A) (A) (A) (A) (A) (A) (A) (A) (A) (A)
                 (A) (A) (A) (A) (A) (A) (A) (A) (A) (A) (A) (A)
                 (A) (A) (A) (A) (A) (A) (A) (A) (A) (A) (A) (A)
                 (A) (A) (A) (A) (A) (A) (A) (A) (A) (A) (A) (A)
                 (A) (A) (A) (A) (A) (A) (A) (A) (A) (A) (A) (A)
                 (A) (A) (A) (A) (A) (A) (A) (A) (A) (A) (A) (A)
                 (A) (A) (A) (A) (A) (A) (A) (A) (A) (A) (A) (A)
                 (A) (A) (A) (A) (A) (A) (A) (A) (A) (A) (A) (A)
                 (A) (A) (A) (A) (A) (A) (A) (A) (A) (A) (A) (A)
                 (A) (A) (A) (A) (A) (A) (A) (A) (A) (A) (A) (A)
                 (A) (A) (A) (A) (A) (A) (A) (A) (A) (A) (A) (A)
                 (A) (A) (A) (A) (A) (A) (A) (A) (A) (A) (A) (A)
                 (A) (A) (A) (A)
       Virtual   (A) (A) (A) (A) (A) (A) (A) (A) (A) (A) (A) (A)
                 (A) (A) (A) (A) (A) (A) (A) (A) (A) (A) (A) (A)
                 (A) (A) (A) (A) (A) (A) (A) (A) (A) (A) (A) (A)
                 (A) (A) (A) (A) (A) (A) (A) (A) (A) (A) (A) (A)
                 (A) (A) (A) (A) (A) (A) (A) (A) (A) (A) (A) (A)
                 (A) (A) (A) (A) (A) (A) (A) (A) (A) (A) (A) (A)
                 (A) (A) (A) (A) (A) (A) (A) (A) (A) (A) (A) (A)
                 (A) (A) (A) (A) (A) (A) (A) (A) (A) (A) (A) (A)
                 (A) (A) (A) (A) (A) (A) (A) (A) (A) (A) (A) (A)
                 (A) (A) (A) (A) (A) (A) (A) (A) (A) (A) (A) (A)
                 (A) (A) (A) (A) (A) (A) (A) (A) (A) (A) (A) (A)
                 (A) (A) (A) (A) (A) (A) (A) (A) (A) (A) (A) (A)
                 (A) (A) (A) (A) (A) (A) (A) (A) (A) (A) (A) (A)
                 (A) (A) (A) (A) (A) (A) (A) (A) (A) (A) (A) (A)
                 (A) (A) (A) (A) (A) (A) (A) (A) (A) (A) (A) (A)
                 (A) (A) (A) (A) (A) (A) (A) (A) (A) (A) (A) (A)
                 (A) (A) (A) (A) (A) (A) (A) (A) (A) (A) (A) (A)
                 (A) (A) (A) (A) (A) (A) (A) (A) (A) (A) (A) (A)
                 (A) (A) (A) (A) (A) (A) (A) (A) (A) (A) (A) (A)
                 (A) (A) (A) (A) (A) (A) (A) (A) (A) (A) (A) (A)
                 (A) (A) (A) (A) (A) (A) (A) (A) (A) (A) (A) (A)
                 (A) (A) (A) (A) (A) (A) (A) (A) (A) (A) (A) (A)
                 (A) (A) (A) (A) (A) (A) (A) (A) (A) (A) (A) (A)
                 (A) (A) (A) (A) (A) (A) (A) (A) (A) (A) (A) (A)
                 (A) (A) (A) (A) (A) (A) (A) (A) (A) (A) (A) (A)
                 (A) (A) (A) (A) (A) (A) (A) (A) (A) (A) (A) (A)
                 (A) (A) (A) (A) (A) (A) (A) (A) (A) (A) (A) (A)
                 (A) (A) (A) (A) (A) (A) (A) (A) (A) (A) (A) (A)
                 (A) (A) (A) (A) (A) (A) (A) (A) (A) (A) (A) (A)
                 (A) (A) (A) (A) (A) (A) (A) (A) (A) (A) (A) (A)
                 (A) (A) (A) (A) (A) (A) (A) (A) (A) (A) (A) (A)
                 (A) (A) (A) (A) (A) (A) (A) (A) (A) (A) (A) (A)
                 (A) (A) (A) (A) (A) (A) (A) (A) (A) (A) (A) (A)
                 (A) (A) (A) (A) (A) (A) (A) (A) (A) (A) (A) (A)
                 (A) (A) (A) (A) (A) (A) (A) (A) (A) (A) (A) (A)
                 (A) (A) (A) (A) (A) (A) (A) (A) (A) (A) (A) (A)
                 (A) (A) (A) (A) (A) (A) (A) (A) (A) (A) (A) (A)
                 (A) (A) (A) (A) (A) (A) (A) (A) (A) (A) (A) (A)
                 (A) (A) (A) (A) (A) (A) (A) (A) (A) (A) (A) (A)
                 (A) (A) (A) (A) (A) (A) (A) (A) (A) (A) (A) (A)
                 (A) (A) (A) (A) (A) (A) (A) (A) (A) (A) (A) (A)
                 (A) (A) (A) (A) (A) (A) (A) (A) (A) (A) (A) (A)
                 (A) (A) (A) (A) (A) (A) (A) (A) (A) (A) (A) (A)
                 (A) (A) (A) (A) (A) (A) (A) (A) (A) (A) (A) (A)
                 (A) (A) (A) (A) (A) (A) (A) (A) (A) (A) (A) (A)
                 (A) (A) (A) (A) (A) (A) (A) (A) (A) (A) (A) (A)
                 (A) (A) (A) (A) (A) (A) (A)
 The electronic state is 1-A.
 Alpha  occ. eigenvalues --  -91.94163 -20.55287 -20.54438 -20.53792 -20.53064
 Alpha  occ. eigenvalues --  -15.71693 -15.64842 -15.61944 -15.61485 -15.60909
 Alpha  occ. eigenvalues --  -15.60093 -15.59372 -15.59284 -15.56458 -11.38727
 Alpha  occ. eigenvalues --  -11.36527 -11.36291 -11.36147 -11.35388 -11.33083
 Alpha  occ. eigenvalues --  -11.31323 -11.30959 -11.30695 -11.30634 -11.29916
 Alpha  occ. eigenvalues --  -11.29166 -11.29015 -11.28825 -11.28649 -11.27910
 Alpha  occ. eigenvalues --  -11.27863 -11.27754 -11.27584 -11.27320 -11.27225
 Alpha  occ. eigenvalues --  -11.25613 -11.25101 -11.24819 -11.24773 -11.24662
 Alpha  occ. eigenvalues --  -11.23968 -11.23140 -11.22558  -8.95085  -6.63387
 Alpha  occ. eigenvalues --   -6.63252  -6.63042  -1.43694  -1.40389  -1.39251
 Alpha  occ. eigenvalues --   -1.38511  -1.38255  -1.31523  -1.27264  -1.26251
 Alpha  occ. eigenvalues --   -1.25703  -1.24761  -1.23770  -1.22272  -1.14242
 Alpha  occ. eigenvalues --   -1.10512  -1.10213  -1.08741  -1.07852  -1.07637
 Alpha  occ. eigenvalues --   -1.05310  -1.04518  -1.03103  -1.00992  -0.99526
 Alpha  occ. eigenvalues --   -0.98144  -0.96175  -0.93453  -0.91996  -0.91536
 Alpha  occ. eigenvalues --   -0.89544  -0.87737  -0.86972  -0.85474  -0.83295
 Alpha  occ. eigenvalues --   -0.82230  -0.81536  -0.81466  -0.80434  -0.80199
 Alpha  occ. eigenvalues --   -0.79195  -0.77853  -0.77741  -0.74010  -0.72873
 Alpha  occ. eigenvalues --   -0.72551  -0.72119  -0.70414  -0.68837  -0.67936
 Alpha  occ. eigenvalues --   -0.67745  -0.67406  -0.67132  -0.66570  -0.66256
 Alpha  occ. eigenvalues --   -0.66213  -0.64945  -0.64674  -0.64341  -0.63326
 Alpha  occ. eigenvalues --   -0.63267  -0.62482  -0.62244  -0.61763  -0.60840
 Alpha  occ. eigenvalues --   -0.60732  -0.60303  -0.59596  -0.59398  -0.59142
 Alpha  occ. eigenvalues --   -0.58831  -0.58795  -0.58334  -0.58060  -0.57825
 Alpha  occ. eigenvalues --   -0.57407  -0.56831  -0.55895  -0.55565  -0.55019
 Alpha  occ. eigenvalues --   -0.54740  -0.54370  -0.53591  -0.53111  -0.52949
 Alpha  occ. eigenvalues --   -0.51996  -0.51582  -0.50601  -0.50263  -0.50128
 Alpha  occ. eigenvalues --   -0.49721  -0.49508  -0.48988  -0.48441  -0.48306
 Alpha  occ. eigenvalues --   -0.46663  -0.45376  -0.45240  -0.44906  -0.44510
 Alpha  occ. eigenvalues --   -0.43793  -0.43287  -0.42992  -0.41851  -0.41612
 Alpha  occ. eigenvalues --   -0.41246  -0.40458  -0.40351  -0.38103  -0.37598
 Alpha  occ. eigenvalues --   -0.35484  -0.33848  -0.33242  -0.30135  -0.27402
 Alpha virt. eigenvalues --    0.06092   0.09263   0.11360   0.13367   0.13384
 Alpha virt. eigenvalues --    0.13720   0.14365   0.15891   0.16953   0.17398
 Alpha virt. eigenvalues --    0.17831   0.18714   0.19489   0.20150   0.20423
 Alpha virt. eigenvalues --    0.21240   0.21640   0.22696   0.23207   0.23241
 Alpha virt. eigenvalues --    0.23886   0.24291   0.24797   0.25208   0.25582
 Alpha virt. eigenvalues --    0.25900   0.26056   0.27483   0.28214   0.28533
 Alpha virt. eigenvalues --    0.28787   0.28943   0.29103   0.29617   0.29656
 Alpha virt. eigenvalues --    0.30162   0.30359   0.30607   0.31546   0.31834
 Alpha virt. eigenvalues --    0.32177   0.32499   0.33005   0.33194   0.33717
 Alpha virt. eigenvalues --    0.34164   0.34613   0.34970   0.35757   0.35880
 Alpha virt. eigenvalues --    0.36383   0.36929   0.37177   0.37778   0.37941
 Alpha virt. eigenvalues --    0.38294   0.39046   0.39170   0.40381   0.41267
 Alpha virt. eigenvalues --    0.41674   0.41730   0.42248   0.42561   0.42940
 Alpha virt. eigenvalues --    0.43638   0.44171   0.44777   0.45097   0.45751
 Alpha virt. eigenvalues --    0.46762   0.47049   0.47467   0.48247   0.49662
 Alpha virt. eigenvalues --    0.49946   0.50307   0.52346   0.52952   0.54233
 Alpha virt. eigenvalues --    0.55908   0.56020   0.56325   0.57003   0.57645
 Alpha virt. eigenvalues --    0.59488   0.59717   0.60749   0.61202   0.61276
 Alpha virt. eigenvalues --    0.61675   0.62597   0.64269   0.64369   0.65696
 Alpha virt. eigenvalues --    0.66886   0.67155   0.68172   0.68747   0.70086
 Alpha virt. eigenvalues --    0.70199   0.70955   0.71456   0.72367   0.72945
 Alpha virt. eigenvalues --    0.73001   0.73210   0.73230   0.73794   0.74393
 Alpha virt. eigenvalues --    0.74647   0.74690   0.74745   0.75207   0.76181
 Alpha virt. eigenvalues --    0.76476   0.76926   0.77187   0.78029   0.78181
 Alpha virt. eigenvalues --    0.78733   0.78936   0.79172   0.79804   0.80268
 Alpha virt. eigenvalues --    0.81051   0.81738   0.82991   0.83194   0.83388
 Alpha virt. eigenvalues --    0.83589   0.84299   0.84888   0.85014   0.85250
 Alpha virt. eigenvalues --    0.85474   0.85803   0.86074   0.86362   0.86929
 Alpha virt. eigenvalues --    0.87229   0.87458   0.87616   0.88199   0.88826
 Alpha virt. eigenvalues --    0.88870   0.89621   0.90220   0.90602   0.91206
 Alpha virt. eigenvalues --    0.91695   0.91815   0.92099   0.92243   0.92896
 Alpha virt. eigenvalues --    0.93034   0.93197   0.93560   0.94639   0.94726
 Alpha virt. eigenvalues --    0.94943   0.95474   0.95843   0.96424   0.97013
 Alpha virt. eigenvalues --    0.97175   0.97928   0.98349   0.98759   1.00037
 Alpha virt. eigenvalues --    1.00232   1.00486   1.01196   1.02521   1.02622
 Alpha virt. eigenvalues --    1.03133   1.03826   1.04294   1.04651   1.04989
 Alpha virt. eigenvalues --    1.05458   1.06179   1.06736   1.06838   1.07053
 Alpha virt. eigenvalues --    1.07309   1.07741   1.08190   1.08625   1.08956
 Alpha virt. eigenvalues --    1.09121   1.09579   1.10033   1.10200   1.10494
 Alpha virt. eigenvalues --    1.11075   1.11233   1.11330   1.11623   1.11885
 Alpha virt. eigenvalues --    1.12029   1.12717   1.13149   1.13482   1.14032
 Alpha virt. eigenvalues --    1.14087   1.14253   1.14442   1.15077   1.15137
 Alpha virt. eigenvalues --    1.15483   1.15861   1.16048   1.16105   1.16586
 Alpha virt. eigenvalues --    1.16980   1.17179   1.17477   1.18476   1.18513
 Alpha virt. eigenvalues --    1.19215   1.19718   1.20114   1.20274   1.20556
 Alpha virt. eigenvalues --    1.20785   1.21040   1.21431   1.22093   1.22398
 Alpha virt. eigenvalues --    1.22787   1.23121   1.24215   1.24693   1.24925
 Alpha virt. eigenvalues --    1.25428   1.25865   1.28099   1.28360   1.28663
 Alpha virt. eigenvalues --    1.29175   1.29805   1.29892   1.30630   1.31550
 Alpha virt. eigenvalues --    1.31867   1.33061   1.33706   1.34072   1.34851
 Alpha virt. eigenvalues --    1.35377   1.36178   1.36962   1.37219   1.38369
 Alpha virt. eigenvalues --    1.39096   1.39422   1.40065   1.41202   1.41485
 Alpha virt. eigenvalues --    1.42164   1.42511   1.42956   1.44102   1.45157
 Alpha virt. eigenvalues --    1.45297   1.45474   1.47480   1.48024   1.48089
 Alpha virt. eigenvalues --    1.49131   1.49645   1.51106   1.52074   1.52283
 Alpha virt. eigenvalues --    1.52683   1.53520   1.54149   1.55414   1.57661
 Alpha virt. eigenvalues --    1.58310   1.59799   1.59968   1.60569   1.60882
 Alpha virt. eigenvalues --    1.61102   1.61541   1.62849   1.63506   1.63795
 Alpha virt. eigenvalues --    1.64962   1.65332   1.66116   1.66596   1.66843
 Alpha virt. eigenvalues --    1.68463   1.69938   1.70119   1.70444   1.71131
 Alpha virt. eigenvalues --    1.71465   1.71885   1.73551   1.73687   1.75001
 Alpha virt. eigenvalues --    1.75512   1.75960   1.76616   1.77044   1.77560
 Alpha virt. eigenvalues --    1.78455   1.78732   1.79150   1.80008   1.80543
 Alpha virt. eigenvalues --    1.81830   1.83039   1.84055   1.86409   1.88461
 Alpha virt. eigenvalues --    1.89624   1.89747   1.91182   1.92452   1.92886
 Alpha virt. eigenvalues --    1.94423   1.94947   1.96246   1.97132   1.98268
 Alpha virt. eigenvalues --    1.99152   1.99606   2.00838   2.01003   2.01703
 Alpha virt. eigenvalues --    2.03404   2.03547   2.03952   2.04551   2.04725
 Alpha virt. eigenvalues --    2.05142   2.07428   2.07890   2.08202   2.08348
 Alpha virt. eigenvalues --    2.08679   2.09410   2.09776   2.09933   2.11478
 Alpha virt. eigenvalues --    2.11618   2.12188   2.13030   2.13318   2.13967
 Alpha virt. eigenvalues --    2.14156   2.14808   2.15889   2.16598   2.16631
 Alpha virt. eigenvalues --    2.16791   2.18153   2.18724   2.19137   2.20153
 Alpha virt. eigenvalues --    2.21396   2.21828   2.22135   2.22637   2.23018
 Alpha virt. eigenvalues --    2.23856   2.24082   2.25318   2.25547   2.25795
 Alpha virt. eigenvalues --    2.25979   2.26191   2.27194   2.27239   2.28504
 Alpha virt. eigenvalues --    2.29175   2.30217   2.30477   2.30716   2.30893
 Alpha virt. eigenvalues --    2.31255   2.32155   2.33133   2.33341   2.33679
 Alpha virt. eigenvalues --    2.35179   2.35738   2.36231   2.36864   2.38137
 Alpha virt. eigenvalues --    2.38330   2.39578   2.39834   2.41628   2.41752
 Alpha virt. eigenvalues --    2.42604   2.43340   2.43618   2.43843   2.45029
 Alpha virt. eigenvalues --    2.45774   2.46030   2.46889   2.47950   2.48216
 Alpha virt. eigenvalues --    2.48609   2.49406   2.50109   2.50955   2.51289
 Alpha virt. eigenvalues --    2.52436   2.53360   2.54898   2.55386   2.56182
 Alpha virt. eigenvalues --    2.56420   2.56858   2.57693   2.58053   2.58901
 Alpha virt. eigenvalues --    2.59805   2.60030   2.61233   2.62102   2.62282
 Alpha virt. eigenvalues --    2.63997   2.64652   2.65172   2.65465   2.66193
 Alpha virt. eigenvalues --    2.67611   2.68013   2.68718   2.69527   2.70479
 Alpha virt. eigenvalues --    2.71110   2.71701   2.73224   2.73493   2.74680
 Alpha virt. eigenvalues --    2.75224   2.76340   2.76649   2.77426   2.78294
 Alpha virt. eigenvalues --    2.80043   2.80345   2.81073   2.82119   2.82873
 Alpha virt. eigenvalues --    2.84125   2.85446   2.85951   2.87151   2.87478
 Alpha virt. eigenvalues --    2.88508   2.90335   2.90868   2.92941   2.93578
 Alpha virt. eigenvalues --    2.94163   2.94270   2.94921   2.95473   2.96897
 Alpha virt. eigenvalues --    2.98715   2.99244   2.99291   3.00211   3.00794
 Alpha virt. eigenvalues --    3.01628   3.02629   3.03479   3.04090   3.05223
 Alpha virt. eigenvalues --    3.06205   3.07809   3.09062   3.09917   3.10157
 Alpha virt. eigenvalues --    3.10559   3.11647   3.12815   3.13731   3.14561
 Alpha virt. eigenvalues --    3.15273   3.16295   3.19575   3.22564   3.24344
 Alpha virt. eigenvalues --    3.26353   3.26434   3.28032   3.32156   3.32230
 Alpha virt. eigenvalues --    3.32272   3.34769   3.36459   3.38114   3.39908
 Alpha virt. eigenvalues --    3.40995   3.48708   3.49561   3.52415   3.52825
 Alpha virt. eigenvalues --    3.53611   3.55989   3.59858   3.63970   3.79575
 Alpha virt. eigenvalues --    3.80563   4.14582   4.30985   4.31823   4.34229
 Alpha virt. eigenvalues --    4.37460   4.40003   4.41851   4.42576   4.45185
 Alpha virt. eigenvalues --    4.46863   4.46996   4.50039   4.54717   4.55151
 Alpha virt. eigenvalues --    4.56783   4.57046   4.57842   4.58457   4.60568
 Alpha virt. eigenvalues --    4.61504   4.61657   4.63008   4.66376   4.66747
 Alpha virt. eigenvalues --    4.68118   4.69926   4.70803   4.72731   4.77907
 Alpha virt. eigenvalues --    4.81162   4.81703   4.85543   4.87226   4.88873
 Alpha virt. eigenvalues --    4.91313   4.94759   4.96621   4.98814   5.00565
 Alpha virt. eigenvalues --    5.01553   5.06010   5.15231   5.22029
          Condensed to atoms (all electrons):
 Mulliken charges:
               1
     1  C    0.758926
     2  C   -0.004213
     3  C    0.701663
     4  C   -0.396989
     5  C   -0.475552
     6  C   -0.068354
     7  C   -0.359198
     8  C   -0.367605
     9  C   -0.099351
    10  C   -0.371045
    11  C    0.351722
    12  C   -0.327489
    13  C   -0.109332
    14  C    0.113690
    15  C   -0.207925
    16  C    0.403748
    17  C   -0.168575
    18  C   -0.256884
    19  C    0.029965
    20  C    0.066735
    21  C   -0.302493
    22  C    0.068005
    23  C    0.634774
    24  N   -0.717532
    25  N   -0.801092
    26  N   -0.222951
    27  N   -0.328472
    28  N   -0.297238
    29  N   -0.618204
    30  N   -0.886550
    31  O   -0.636834
    32  O   -0.579258
    33  H    0.231318
    34  H    0.174179
    35  H    0.187284
    36  H    0.188146
    37  H    0.187813
    38  H    0.178221
    39  H    0.209320
    40  H    0.198730
    41  H    0.192456
    42  H    0.179990
    43  H    0.233297
    44  H    0.217714
    45  H    0.275244
    46  H    0.226892
    47  H    0.237782
    48  H    0.230532
    49  H    0.210302
    50  H    0.205993
    51  H    0.401743
    52  H    0.408681
    53  H    0.108467
    54  C   -0.485530
    55  C    0.801555
    56  O   -0.633354
    57  N   -0.809205
    58  C   -0.037638
    59  C    0.781081
    60  O   -0.622292
    61  N   -0.759029
    62  C   -0.194228
    63  H    0.115744
    64  H    0.415611
    65  H    0.437551
    66  H    0.105555
    67  H    0.242947
    68  H    0.081389
    69  H    0.215895
    70  C   -0.498295
    71  S    0.144359
    72  H    0.214706
    73  H    0.220055
    74  H    0.208984
    75  H    0.220376
    76  H    0.198101
    77  H    0.229889
    78  H    0.195577
 Sum of Mulliken charges =  -0.00000
 Mulliken charges with hydrogens summed into heavy atoms:
               1
     1  C    0.758926
     2  C    0.227105
     3  C    0.701663
     4  C    0.021488
     5  C   -0.050086
     6  C    0.293109
     7  C    0.016761
     8  C    0.019936
     9  C    0.291835
    10  C    0.042242
    11  C    0.351722
    12  C   -0.109776
    13  C   -0.109332
    14  C    0.113690
    15  C   -0.207925
    16  C    0.403748
    17  C    0.106668
    18  C   -0.029992
    19  C    0.267746
    20  C    0.297267
    21  C   -0.092191
    22  C    0.273998
    23  C    0.634774
    24  N   -0.717532
    25  N   -0.399348
    26  N   -0.222951
    27  N   -0.328472
    28  N   -0.297238
    29  N   -0.618204
    30  N   -0.477869
    31  O   -0.636834
    32  O   -0.579258
    54  C   -0.028561
    55  C    0.801555
    56  O   -0.633354
    57  N   -0.393594
    58  C    0.171346
    59  C    0.781081
    60  O   -0.622292
    61  N   -0.321478
    62  C    0.218800
    70  C   -0.063534
    71  S    0.144359
 DipInt: DoE/N= T F RetVal/Mat= T F Init=T NMatP=  1 IDeriv=0 Min/MaxMlt=  0  4
 Entering OneElI...
 OneElI was handed   103546840 working-precision words.
 Multipole integrals L=0 to 4 MinM= 0 MaxM= 0.
 Requested accuracy = 0.1000D-12
 PrtBox:  NBox=     2 Levels=  1 BoxLen=   42.88 SMaxX=       43.38
          Shift=           23.208879            9.063868            6.566504
 Box      1 Number                   0 centers from      1 to    237:
 Box      2 Number                   4 centers from    238 to    243:
 ShPair: Thresh= 1.00D-13 NBox=     2 BxSize= 4.29D+01 RnKept= 2.33D+01
         NSMCal=                29646 NSMKep=               13116
 PrmmSu-InSpLW:  IPartL=    0 NPrtUS=    1 NPrtUL=    1 DoSpLW=F IThBeg=    0 IThEnd=    0 NThAct=    1.
 PrsmSu:  NPrtUS=   1 ThrOK=F IAlg=1 NPAlg=1 LenDen=           0 ISkipM=0 DoSpLW=F IThBeg=    0 IThEnd=    0.
 Prism:   IPart=     0 DynPar=F LinDyn=F Incr=         131.
 PRISM was handed   102205753 working-precision words and 13116 shell-pairs
 IPart=  0 NShTot=       13116 NBatch=         123 AvBLen=       106.6
 PrsmSu-ThDecC:  IPartSL=    0    0 NPrtUSL=    1    1 IThBeg=    0 IThEnd=    0 CPU=   -1 GPU=   -1 NThAct=    1.
 PrSmSu:  NxtVal=            132.
 Electronic moments (au):
       -320.00000000         -2.55762972          1.63437077          0.61234095
     -55764.65512443      -4080.88854386      -1650.63356190          3.24665483
         12.63120422          3.92930507      51926.78613745       -183.20601526
       -712.98663361     -25250.88851202      -8684.16538999      36130.08423741
      10213.29470750      -1572.40866126       1069.84942124      -9283.48116463
  -16299843.56731845    -142714.99258453     -31992.86374999    -540505.86165696
    -300738.81254766      12976.07166137      -8101.02566127     -17016.80816155
       6624.03094982    -793409.99378711    -252685.31110987     -15882.14720529
      21594.48792553     -22321.73644114      17044.41702382
 Electronic spatial extent (au):  <R**2>=          61496.1772
 DipInt: DoE/N= F T RetVal/Mat= T F Init=T NMatP=  1 IDeriv=0 Min/MaxMlt=  0  4
 Nuclear    moments (au):
        320.00000000          0.00000000          0.00000000          0.00000000
      55538.07792748       3893.05506875       1443.88343718          0.00000000
          0.00000000          0.00000000     -53664.67962943        311.21946508
        633.53434567      25122.70878029       8189.53079030     -35918.82506827
     -10302.82972989       1597.64835548      -1024.17635350       9349.70886060
   16070183.21321186     128108.02287744      25667.77050891     537154.60926817
     302959.91993860     -12079.03888264       8382.16888242      17744.06568047
      -6666.18554829     758196.47582362     217882.31552058      12406.51642086
     -19611.53232049      22932.61581723     -17088.77347679
 Total      moments (au):
         -0.00000000         -2.55762972          1.63437077          0.61234095
       -226.57719695       -187.83347511       -206.75012472          3.24665483
         12.63120422          3.92930507      -1737.89349199        128.01344982
        -79.45228795       -128.17973173       -494.63459969        211.25916914
        -89.53502239         25.23969422         45.67306775         66.22769597
    -229660.35410660     -14606.96970710      -6325.09324107      -3351.25238879
       2221.10739094        897.03277873        281.14322115        727.25751891
        -42.15459848     -35213.51796349     -34802.99558929      -3475.63078443
       1982.95560503        610.87937609        -44.35645297
 Traceless Quadrup. (au):
        -19.52359802         19.22012382          0.30347421          3.24665483
         12.63120422          3.92930507
 Charge=             -0.0000 electrons
 Dipole moment (field-independent basis, Debye):
    X=             -6.5008    Y=              4.1542    Z=              1.5564  Tot=              7.8702
 Quadrupole moment (field-independent basis, Debye-Ang):
   XX=           -304.7541   YY=           -252.6425   ZZ=           -278.0860
   XY=              4.3669   XZ=             16.9894   YZ=              5.2850
 Traceless Quadrupole moment (field-independent basis, Debye-Ang):
   XX=            -26.2599   YY=             25.8517   ZZ=              0.4082
   XY=              4.3669   XZ=             16.9894   YZ=              5.2850
 Octapole moment (field-independent basis, Debye-Ang**2):
  XXX=          -1236.9656  YYY=             91.1150  ZZZ=            -56.5511  XYY=            -91.2334
  XXY=           -352.0619  XXZ=            150.3661  XZZ=            -63.7276  YZZ=             17.9646
  YYZ=             32.5083  XYZ=             47.1383
 Hexadecapole moment (field-independent basis, Debye-Ang**3):
 XXXX=         -86501.1019 YYYY=          -5501.6852 ZZZZ=          -2382.3334 XXXY=          -1262.2423
 XXXZ=            836.5755 YYYX=            337.8656 YYYZ=            105.8920 ZZZX=            273.9201
 ZZZY=            -15.8774 XXYY=         -13263.0994 XXZZ=         -13108.4770 YYZZ=          -1309.0892
 XXYZ=            746.8762 YYXZ=            230.0865 ZZXY=            -16.7068
 N-N= 4.740596991104D+03 E-N=-1.488439020404D+04  KE= 2.298803082316D+03
 Entering OneElI...
 OneElI was handed   103802933 working-precision words.
 Calculate electrostatic properties
    NBasis =   719  MinDer = 0  MaxDer = 0
    NGrid  =    78  NMatD  =   1
 Requested accuracy = 0.1000D-12
 PrtBox:  NBox=     2 Levels=  1 BoxLen=   35.73 SMaxX=       43.38
          Shift=           23.208879            9.063868            6.566504
 Box      1 Number                   0 centers from      1 to    185:
 Box      2 Number                   4 centers from    186 to    243:
 ShPair: Thresh= 1.00D-13 NBox=     2 BxSize= 3.57D+01 RnKept= 2.01D+01
         NSMCal=                29646 NSMKep=               10597
 PrmmSu-InSpLW:  IPartL=    0 NPrtUS=    1 NPrtUL=    1 DoSpLW=F IThBeg=    0 IThEnd=    0 NThAct=    1.
 PrsmSu:  NPrtUS=   1 ThrOK=F IAlg=1 NPAlg=1 LenDen=           0 ISkipM=0 DoSpLW=F IThBeg=    0 IThEnd=    0.
 Prism:   IPart=     0 DynPar=F LinDyn=F Incr=         512.
 PRISM was handed   102616405 working-precision words and 10597 shell-pairs
 IPart=  0 NShTot=      826566 NBatch=       10886 AvBLen=        75.9
 PrsmSu-ThDecC:  IPartSL=    0    0 NPrtUSL=    1    1 IThBeg=    0 IThEnd=    0 CPU=   -1 GPU=   -1 NThAct=    1.
 PrSmSu:  NxtVal=            513.
 --------------------------------------------------------
       Center         ----      EFG at Nuclei      ----
                      3XX-RR        3YY-RR        3ZZ-RR
 --------------------------------------------------------
     1   Atom        0.058897      0.061451     -0.120348
     2   Atom        0.039551      0.141075     -0.180626
     3   Atom       -0.294241      0.026329      0.267912
     4   Atom       -0.120851      0.006900      0.113951
     5   Atom       -0.192417     -0.012585      0.205002
     6   Atom        0.151398     -0.294229      0.142831
     7   Atom        0.027620      0.009204     -0.036824
     8   Atom        0.035855     -0.084581      0.048726
     9   Atom       -0.190192      0.075799      0.114393
    10   Atom       -0.042579      0.011147      0.031432
    11   Atom        0.300692     -0.065983     -0.234709
    12   Atom        0.056875      0.043108     -0.099982
    13   Atom        0.101036      0.077743     -0.178780
    14   Atom        0.210344      0.174640     -0.384984
    15   Atom        0.029970      0.008740     -0.038710
    16   Atom       -0.031198      0.121153     -0.089955
    17   Atom        0.057302      0.210692     -0.267994
    18   Atom        0.041072      0.146564     -0.187636
    19   Atom        0.022626      0.219013     -0.241639
    20   Atom        0.118694      0.091374     -0.210068
    21   Atom        0.082511      0.103807     -0.186318
    22   Atom        0.119375      0.269196     -0.388571
    23   Atom       -0.018963      0.271158     -0.252195
    24   Atom        0.979008     -0.606260     -0.372748
    25   Atom       -0.219877     -0.003058      0.222935
    26   Atom        0.752501     -0.496061     -0.256440
    27   Atom       -0.024402     -0.320141      0.344543
    28   Atom        0.414674     -0.272669     -0.142005
    29   Atom       -0.063356      0.561252     -0.497896
    30   Atom       -0.420916     -0.389089      0.810005
    31   Atom        1.207508     -0.702115     -0.505393
    32   Atom       -0.054508      0.779427     -0.724920
    33   Atom       -0.082412      0.086444     -0.004032
    34   Atom       -0.058548      0.109842     -0.051293
    35   Atom       -0.213453      0.103193      0.110259
    36   Atom        0.036058     -0.181416      0.145358
    37   Atom       -0.177947      0.135090      0.042858
    38   Atom       -0.280026      0.135681      0.144345
    39   Atom        0.139555      0.145069     -0.284624
    40   Atom        0.125963     -0.281461      0.155498
    41   Atom        0.048413      0.118431     -0.166845
    42   Atom        0.141680     -0.294262      0.152582
    43   Atom        0.062329      0.104702     -0.167031
    44   Atom        0.143428     -0.309059      0.165631
    45   Atom       -0.113654     -0.000394      0.114047
    46   Atom       -0.107760      0.058861      0.048899
    47   Atom        0.146422     -0.289431      0.143009
    48   Atom       -0.001174     -0.072903      0.074077
    49   Atom       -0.321205      0.142754      0.178451
    50   Atom        0.035452     -0.203820      0.168367
    51   Atom        0.161160     -0.170165      0.009005
    52   Atom       -0.104390     -0.114995      0.219385
    53   Atom       -0.003463     -0.005298      0.008761
    54   Atom        0.083280     -0.020818     -0.062462
    55   Atom        0.061778      0.358774     -0.420552
    56   Atom        0.703336     -0.326695     -0.376642
    57   Atom       -0.344183     -0.485133      0.829316
    58   Atom        0.017425     -0.104166      0.086741
    59   Atom        0.213734     -0.286513      0.072779
    60   Atom       -0.941326      0.090249      0.851077
    61   Atom       -0.088243      0.485478     -0.397234
    62   Atom       -0.098008      0.089112      0.008896
    63   Atom       -0.006555      0.005594      0.000961
    64   Atom        0.073259     -0.291587      0.218328
    65   Atom       -0.221533      0.188687      0.032846
    66   Atom        0.005166     -0.000668     -0.004498
    67   Atom       -0.091218      0.119707     -0.028489
    68   Atom        0.006222     -0.005179     -0.001043
    69   Atom        0.098456     -0.104357      0.005901
    70   Atom       -0.052963      0.002983      0.049980
    71   Atom       -2.279864     -0.517583      2.797447
    72   Atom        0.052602     -0.182495      0.129892
    73   Atom        0.049323      0.107417     -0.156740
    74   Atom        0.001468     -0.065488      0.064020
    75   Atom        0.125388     -0.005968     -0.119420
    76   Atom        0.085216     -0.009355     -0.075861
    77   Atom        0.138849      0.123321     -0.262170
    78   Atom        0.126767     -0.170958      0.044191
 --------------------------------------------------------
                        XY            XZ            YZ
 --------------------------------------------------------
     1   Atom       -0.276469      0.194873      0.341315
     2   Atom        0.076931      0.156371     -0.015724
     3   Atom        0.376490      0.065712      0.080571
     4   Atom       -0.009489     -0.060208     -0.004927
     5   Atom       -0.126802      0.000534      0.033048
     6   Atom        0.011181      0.008014     -0.015733
     7   Atom        0.005110      0.037306     -0.006220
     8   Atom       -0.027014      0.011778      0.027203
     9   Atom        0.192252     -0.008248      0.032953
    10   Atom        0.045868      0.037507      0.042984
    11   Atom        0.082776     -0.026602     -0.018611
    12   Atom        0.028410     -0.010119     -0.008669
    13   Atom       -0.009859     -0.005742     -0.030427
    14   Atom       -0.072720      0.011982     -0.010630
    15   Atom        0.015520     -0.039631      0.002133
    16   Atom       -0.115145     -0.114552      0.151031
    17   Atom        0.075191     -0.263342      0.100330
    18   Atom        0.034931     -0.170582      0.070460
    19   Atom        0.110747     -0.157864      0.059123
    20   Atom        0.000070     -0.217481      0.102376
    21   Atom        0.020143      0.000325      0.001834
    22   Atom        0.004194     -0.016896     -0.021713
    23   Atom        0.042438     -0.010446     -0.041113
    24   Atom        0.138021      0.629399      0.010719
    25   Atom        0.402338     -0.466036     -0.575675
    26   Atom        0.553953     -0.452158     -0.264024
    27   Atom       -0.016721      0.252690     -0.154593
    28   Atom        0.812033     -0.050674     -0.417581
    29   Atom        0.633663     -0.043346     -0.069233
    30   Atom        0.003672      0.070118      0.123852
    31   Atom       -0.650683      0.779067     -0.343194
    32   Atom        1.403647     -0.241079     -0.403946
    33   Atom       -0.119468     -0.179663     -0.094544
    34   Atom       -0.078358     -0.207565     -0.081394
    35   Atom        0.110680      0.130847     -0.038645
    36   Atom       -0.197829     -0.020049     -0.038568
    37   Atom        0.075757     -0.183694      0.041642
    38   Atom       -0.061330     -0.065496     -0.006564
    39   Atom        0.003561     -0.075594      0.028449
    40   Atom       -0.069261      0.009570      0.023111
    41   Atom       -0.045716     -0.171685     -0.105545
    42   Atom       -0.024743      0.007557      0.034843
    43   Atom       -0.057416     -0.162294     -0.120209
    44   Atom       -0.041905      0.002272      0.068969
    45   Atom       -0.204888      0.117865      0.082220
    46   Atom        0.147424      0.183869     -0.104212
    47   Atom       -0.015703      0.006532     -0.092588
    48   Atom        0.183170      0.123354     -0.143821
    49   Atom        0.016911      0.003867      0.002204
    50   Atom        0.200503     -0.001090      0.003485
    51   Atom        0.053175     -0.004535     -0.276926
    52   Atom       -0.270217      0.042769      0.046312
    53   Atom        0.013206      0.006461     -0.013291
    54   Atom        0.014983      0.274416      0.018206
    55   Atom       -0.023753      0.265699      0.024136
    56   Atom        1.038574      0.599086      0.490977
    57   Atom       -0.059883     -0.509001     -0.038888
    58   Atom       -0.204050     -0.079570     -0.037884
    59   Atom       -0.162240     -0.204063     -0.301352
    60   Atom       -0.172211      0.252715     -1.145981
    61   Atom        0.513592      0.173572      0.495469
    62   Atom        0.159110      0.080147      0.183057
    63   Atom       -0.009725      0.005570      0.002950
    64   Atom        0.199299     -0.046194      0.032390
    65   Atom        0.115723      0.223067     -0.015851
    66   Atom       -0.004747      0.001674      0.006095
    67   Atom        0.072549     -0.208469      0.064859
    68   Atom        0.008232     -0.000011      0.003576
    69   Atom       -0.119234     -0.087577     -0.177393
    70   Atom        0.174456     -0.027661     -0.054563
    71   Atom        0.324018      0.889264     -0.154076
    72   Atom       -0.168456     -0.055175     -0.093093
    73   Atom       -0.059582      0.170705      0.115308
    74   Atom        0.170824      0.105366     -0.126632
    75   Atom       -0.054436      0.066939      0.209793
    76   Atom        0.098543      0.117869     -0.197163
    77   Atom       -0.012833      0.048110      0.102687
    78   Atom        0.049207      0.031069     -0.196802
 --------------------------------------------------------


 ---------------------------------------------------------------------------------
              Nuclear Quadrupole Coupling Constant in Principal Axis System
 ---------------------------------------------------------------------------------

       Atom             a.u.   MegaHertz   Gauss  10(-4) cm-1        Axes

              Baa    -0.6586     3.163     1.129     1.055 -0.3110  0.6848  0.6590
    24 N(14)  Bbb    -0.5776     2.774     0.990     0.925  0.2019  0.7252 -0.6583
              Bcc     1.2362    -5.937    -2.118    -1.980  0.9287  0.0717  0.3638
 
              Baa    -0.5321     2.555     0.912     0.852  0.8703 -0.4541  0.1910
    25 N(14)  Bbb    -0.4737     2.275     0.812     0.759  0.2030  0.6838  0.7009
              Bcc     1.0057    -4.830    -1.724    -1.611 -0.4488 -0.5712  0.6872
 
              Baa    -0.7300     3.506     1.251     1.169 -0.2664  0.9274  0.2627
    26 N(14)  Bbb    -0.4227     2.030     0.724     0.677  0.4113 -0.1371  0.9011
              Bcc     1.1527    -5.536    -1.975    -1.847  0.8717  0.3481 -0.3449
 
              Baa    -0.3602     1.730     0.617     0.577 -0.1505  0.9530  0.2630
    27 N(14)  Bbb    -0.1387     0.666     0.238     0.222  0.8889  0.2469 -0.3858
              Bcc     0.4989    -2.396    -0.855    -0.799  0.4326 -0.1757  0.8843
 
              Baa    -0.9449     4.538     1.619     1.514 -0.4624  0.7983  0.3860
    28 N(14)  Bbb    -0.0752     0.361     0.129     0.120  0.4113 -0.1925  0.8909
              Bcc     1.0201    -4.899    -1.748    -1.634  0.7855  0.5707 -0.2393
 
              Baa    -0.5025     2.413     0.861     0.805  0.0341  0.0447  0.9984
    29 N(14)  Bbb    -0.4575     2.197     0.784     0.733  0.8490 -0.5284 -0.0053
              Bcc     0.9600    -4.610    -1.645    -1.538  0.5273  0.8478 -0.0559
 
              Baa    -0.4254     2.043     0.729     0.681  0.9878  0.1390 -0.0700
    30 N(14)  Bbb    -0.4012     1.927     0.688     0.643 -0.1452  0.9851 -0.0923
              Bcc     0.8266    -3.970    -1.417    -1.324  0.0561  0.1014  0.9933
 
              Baa    -0.5836     2.803     1.000     0.935  0.7623  0.5783  0.2905
    57 N(14)  Bbb    -0.4359     2.093     0.747     0.698 -0.5449  0.8157 -0.1941
              Bcc     1.0195    -4.896    -1.747    -1.633 -0.3493 -0.0103  0.9370
 
              Baa    -0.6278     3.015     1.076     1.006  0.1587 -0.4616  0.8728
    61 N(14)  Bbb    -0.3528     1.694     0.605     0.565  0.8782 -0.3380 -0.3385
              Bcc     0.9806    -4.709    -1.680    -1.571  0.4512  0.8201  0.3518
 

 ---------------------------------------------------------------------------------

 No NMR shielding tensors so no spin-rotation constants.
 Leave Link  601 at Tue Aug 20 18:05:01 2024, MaxMem=   104857600 cpu:               0.6 elap:               0.7
 FitSet:  NAtFit=    78 NAtPot=    78 NAtFrz=     0 MDM=    82 TotChg=   0.00000
 Merz-Kollman atomic radii used.
 Atom Element Radius
    1     6    1.50
    2     6    1.50
    3     6    1.50
    4     6    1.50
    5     6    1.50
    6     6    1.50
    7     6    1.50
    8     6    1.50
    9     6    1.50
   10     6    1.50
   11     6    1.50
   12     6    1.50
   13     6    1.50
   14     6    1.50
   15     6    1.50
   16     6    1.50
   17     6    1.50
   18     6    1.50
   19     6    1.50
   20     6    1.50
   21     6    1.50
   22     6    1.50
   23     6    1.50
   24     7    1.50
   25     7    1.50
   26     7    1.50
   27     7    1.50
   28     7    1.50
   29     7    1.50
   30     7    1.50
   31     8    1.40
   32     8    1.40
   33     1    1.20
   34     1    1.20
   35     1    1.20
   36     1    1.20
   37     1    1.20
   38     1    1.20
   39     1    1.20
   40     1    1.20
   41     1    1.20
   42     1    1.20
   43     1    1.20
   44     1    1.20
   45     1    1.20
   46     1    1.20
   47     1    1.20
   48     1    1.20
   49     1    1.20
   50     1    1.20
   51     1    1.20
   52     1    1.20
   53     1    1.20
   54     6    1.50
   55     6    1.50
   56     8    1.40
   57     7    1.50
   58     6    1.50
   59     6    1.50
   60     8    1.40
   61     7    1.50
   62     6    1.50
   63     1    1.20
   64     1    1.20
   65     1    1.20
   66     1    1.20
   67     1    1.20
   68     1    1.20
   69     1    1.20
   70     6    1.50
   71    16    1.75
   72     1    1.20
   73     1    1.20
   74     1    1.20
   75     1    1.20
   76     1    1.20
   77     1    1.20
   78     1    1.20
 Generate VDW surfaces: Layer= 4 Dens= 1 Start= 1.400 Inc= 0.200

 **********************************************************************

            Electrostatic Properties Using The SCF Density

 **********************************************************************

       Atomic Center    1 is at  -0.202968 -0.453367 -0.308578
       Atomic Center    2 is at  -1.388584  0.524801 -0.358540
       Atomic Center    3 is at  -2.316889 -0.062338  1.928326
       Atomic Center    4 is at  -3.383061 -1.073848  1.455803
       Atomic Center    5 is at  -4.694665 -0.338786  0.983911
       Atomic Center    6 is at  -2.003691  2.272494  1.188602
       Atomic Center    7 is at  -1.682089  2.922716 -0.156598
       Atomic Center    8 is at  -0.920039  1.873335 -0.939093
       Atomic Center    9 is at   2.010295 -0.952452  0.681964
       Atomic Center   10 is at   2.892899 -0.612505 -0.531660
       Atomic Center   11 is at   4.275541 -1.164784 -0.466735
       Atomic Center   12 is at   5.455235 -0.483538 -0.573999
       Atomic Center   13 is at   6.522134 -1.438714 -0.447954
       Atomic Center   14 is at   7.943910 -1.412304 -0.425499
       Atomic Center   15 is at   8.738662 -0.164309 -0.442426
       Atomic Center   16 is at   8.521532  1.152271  0.037319
       Atomic Center   17 is at   7.413221  1.657417  0.761492
       Atomic Center   18 is at   7.441985  3.041160  1.031947
       Atomic Center   19 is at   8.547644  3.810017  0.605497
       Atomic Center   20 is at  10.051251  0.002106 -0.981630
       Atomic Center   21 is at   8.617715 -2.652725 -0.401827
       Atomic Center   22 is at   7.888040 -3.855137 -0.352898
       Atomic Center   23 is at   5.916787 -2.725851 -0.355745
       Atomic Center   24 is at  -1.940027  0.828813  0.976056
       Atomic Center   25 is at   0.755013 -0.215933  0.605496
       Atomic Center   26 is at   9.645145  3.305560 -0.013056
       Atomic Center   27 is at   9.566137  2.001055 -0.263266
       Atomic Center   28 is at  10.528662  1.252934 -0.871170
       Atomic Center   29 is at   6.543577 -3.931998 -0.305846
       Atomic Center   30 is at   4.555298 -2.511453 -0.319861
       Atomic Center   31 is at  -0.162475 -1.395643 -1.096106
       Atomic Center   32 is at  -2.256135  0.197936  3.130948
       Atomic Center   33 is at  -2.179377  0.119226 -0.990499
       Atomic Center   34 is at  -1.256139  2.552823  1.933558
       Atomic Center   35 is at  -2.990691  2.583251  1.534962
       Atomic Center   36 is at  -1.133785  3.858859 -0.054241
       Atomic Center   37 is at  -2.611712  3.132404 -0.685401
       Atomic Center   38 is at   0.147354  2.034952 -0.785952
       Atomic Center   39 is at  -1.101617  1.944913 -2.011406
       Atomic Center   40 is at   1.816344 -2.023745  0.741882
       Atomic Center   41 is at   2.509783 -0.664986  1.607441
       Atomic Center   42 is at   2.955289  0.473096 -0.625312
       Atomic Center   43 is at   2.416597 -0.955864 -1.448453
       Atomic Center   44 is at   5.554134  0.579917 -0.733785
       Atomic Center   45 is at   6.601721  1.040113  1.100122
       Atomic Center   46 is at   6.631843  3.508677  1.574792
       Atomic Center   47 is at   8.583795  4.868863  0.823705
       Atomic Center   48 is at  10.676535 -0.740415 -1.455339
       Atomic Center   49 is at   9.696402 -2.695626 -0.409564
       Atomic Center   50 is at   8.414849 -4.796392 -0.345872
       Atomic Center   51 is at   0.674780  0.606873  1.199537
       Atomic Center   52 is at   3.851638 -3.234517 -0.214845
       Atomic Center   53 is at -10.559611 -2.961975 -1.557584
       Atomic Center   54 is at -11.483886 -2.074517 -0.834737
       Atomic Center   55 is at -10.790205 -0.770571 -0.426406
       Atomic Center   56 is at -11.354773  0.295002 -0.658122
       Atomic Center   57 is at  -9.553015 -0.875539  0.120704
       Atomic Center   58 is at  -8.658096  0.252921  0.448730
       Atomic Center   59 is at  -8.112562  0.903492 -0.839876
       Atomic Center   60 is at  -6.964271  0.677602 -1.203761
       Atomic Center   61 is at  -8.988092  1.682694 -1.492525
       Atomic Center   62 is at  -8.998158  2.131943 -2.880441
       Atomic Center   63 is at  -7.621102  2.437668 -3.474844
       Atomic Center   64 is at  -9.136090 -1.795560  0.202882
       Atomic Center   65 is at  -9.859122  1.857447 -1.009067
       Atomic Center   66 is at -12.145953 -2.839621  0.351638
       Atomic Center   67 is at -12.281610 -1.800769 -1.527271
       Atomic Center   68 is at -10.008298  3.298625 -3.048790
       Atomic Center   69 is at  -9.385724  1.288753 -3.457096
       Atomic Center   70 is at  -7.558066 -0.045401  1.526860
       Atomic Center   71 is at  -6.248972 -1.300116  1.197476
       Atomic Center   72 is at  -7.071117  0.890356  1.801845
       Atomic Center   73 is at  -8.061770 -0.374536  2.436702
       Atomic Center   74 is at  -9.299094  1.006991  0.909413
       Atomic Center   75 is at  -3.600468 -1.721095  2.303772
       Atomic Center   76 is at  -2.973515 -1.731180  0.693441
       Atomic Center   77 is at  -4.582257 -0.072390 -0.067253
       Atomic Center   78 is at  -4.839471  0.593454  1.533014
      ESP Fit Center   79 is at  -0.461789 -2.253509  0.741422
      ESP Fit Center   80 is at   1.326981  0.529872 -1.358578
      ESP Fit Center   81 is at   0.322032  0.455960 -2.127231
      ESP Fit Center   82 is at  -1.561393 -1.716643  2.978326
      ESP Fit Center   83 is at  -1.123953 -1.790604  1.928326
      ESP Fit Center   84 is at  -1.853113 -2.057086  2.505803
      ESP Fit Center   85 is at  -4.694665 -0.338786  3.083911
      ESP Fit Center   86 is at  -2.262512  4.072636  2.238602
      ESP Fit Center   87 is at  -2.748361  4.236028  1.188602
      ESP Fit Center   88 is at  -3.748676  1.760120  0.138602
      ESP Fit Center   89 is at   0.136564  2.922716  0.893402
      ESP Fit Center   90 is at  -2.873054  4.297162  0.893402
      ESP Fit Center   91 is at  -1.157089  3.832043 -1.975251
      ESP Fit Center   92 is at  -0.164543  3.527641 -1.989093
      ESP Fit Center   93 is at   0.609909  0.890097 -1.989093
      ESP Fit Center   94 is at   1.485295 -1.861779  2.500618
      ESP Fit Center   95 is at   3.417899  0.296822 -2.350314
      ESP Fit Center   96 is at   4.275541 -1.164784  1.633265
      ESP Fit Center   97 is at   3.750541 -2.074111 -2.285389
      ESP Fit Center   98 is at   4.275541 -1.164784 -2.566735
      ESP Fit Center   99 is at   5.455235 -0.483538  1.526001
      ESP Fit Center  100 is at   4.930235  0.425789  1.244654
      ESP Fit Center  101 is at   4.264270  0.890909  0.476001
      ESP Fit Center  102 is at   6.985184  0.499700 -1.623999
      ESP Fit Center  103 is at   6.505235 -0.483538 -2.392652
      ESP Fit Center  104 is at   5.980235  0.425789 -2.392652
      ESP Fit Center  105 is at   4.930235  0.425789 -2.392652
      ESP Fit Center  106 is at   5.455235 -0.483538 -2.673999
      ESP Fit Center  107 is at   6.522134 -1.438714  1.652046
      ESP Fit Center  108 is at   5.472134 -1.438714  1.370699
      ESP Fit Center  109 is at   7.047134 -0.529387 -2.266608
      ESP Fit Center  110 is at   7.047134 -2.348040 -2.266608
      ESP Fit Center  111 is at   6.522134 -1.438714 -2.547954
      ESP Fit Center  112 is at   7.943910 -1.412304  1.674501
      ESP Fit Center  113 is at   8.993910 -1.412304  1.393154
      ESP Fit Center  114 is at   7.418910 -0.502977  1.393154
      ESP Fit Center  115 is at   7.418910 -2.321631  1.393154
      ESP Fit Center  116 is at   8.993910 -1.412304 -2.244152
      ESP Fit Center  117 is at   7.418910 -0.502977 -2.244152
      ESP Fit Center  118 is at   7.418910 -2.321631 -2.244152
      ESP Fit Center  119 is at   7.943910 -1.412304 -2.525499
      ESP Fit Center  120 is at   9.788662 -0.164309  1.376228
      ESP Fit Center  121 is at   9.263662 -1.073636  1.376228
      ESP Fit Center  122 is at   8.213662  0.745018 -2.261079
      ESP Fit Center  123 is at   7.688662 -0.164309 -2.261079
      ESP Fit Center  124 is at   9.571532  1.152271  1.855972
      ESP Fit Center  125 is at   9.046532  0.242944  1.855972
      ESP Fit Center  126 is at   7.996532  2.061597 -1.781335
      ESP Fit Center  127 is at   7.471532  1.152271 -1.781335
      ESP Fit Center  128 is at   7.413221  1.657417  2.861492
      ESP Fit Center  129 is at   8.463221  1.657417  2.580145
      ESP Fit Center  130 is at   7.938221  0.748090  2.580145
      ESP Fit Center  131 is at   8.168717  0.003112  1.811492
      ESP Fit Center  132 is at   5.374243  2.159980  0.761492
      ESP Fit Center  133 is at   6.888221  2.566744 -1.057161
      ESP Fit Center  134 is at   7.441985  3.041160  3.131947
      ESP Fit Center  135 is at   8.491985  3.041160  2.850600
      ESP Fit Center  136 is at   7.966985  3.950486  2.850600
      ESP Fit Center  137 is at   6.916985  2.131833  2.850600
      ESP Fit Center  138 is at   7.966985  2.131833  2.850600
      ESP Fit Center  139 is at   6.251020  4.415606 -0.018053
      ESP Fit Center  140 is at   5.696999  3.553534 -0.018053
      ESP Fit Center  141 is at   6.916985  3.950486 -0.786706
      ESP Fit Center  142 is at   6.391985  3.041160 -0.786706
      ESP Fit Center  143 is at   7.441985  3.041160 -1.068053
      ESP Fit Center  144 is at   8.547644  3.810017  2.705497
      ESP Fit Center  145 is at   9.597644  3.810017  2.424150
      ESP Fit Center  146 is at   9.072644  4.719344  2.424150
      ESP Fit Center  147 is at   8.022644  4.719344  2.424150
      ESP Fit Center  148 is at   9.072644  2.900691  2.424150
      ESP Fit Center  149 is at  10.077593  4.793255  1.655497
      ESP Fit Center  150 is at   7.356679  5.184464 -0.444503
      ESP Fit Center  151 is at   8.022644  4.719344 -1.213157
      ESP Fit Center  152 is at   7.497644  3.810017 -1.213157
      ESP Fit Center  153 is at  11.101251  0.002106  0.837023
      ESP Fit Center  154 is at  10.576251 -0.907220  0.837023
      ESP Fit Center  155 is at  11.581200 -0.981132  0.068370
      ESP Fit Center  156 is at   9.526251  0.911433 -2.800283
      ESP Fit Center  157 is at   9.001251  0.002106 -2.800283
      ESP Fit Center  158 is at   9.526251 -0.907220 -2.800283
      ESP Fit Center  159 is at  10.051251  0.002106 -3.081630
      ESP Fit Center  160 is at   8.617715 -2.652725  1.698173
      ESP Fit Center  161 is at   9.667715 -2.652725  1.416826
      ESP Fit Center  162 is at   9.142715 -1.743398  1.416826
      ESP Fit Center  163 is at   7.567715 -2.652725  1.416826
      ESP Fit Center  164 is at   9.142715 -3.562051  1.416826
      ESP Fit Center  165 is at   9.667715 -2.652725 -2.220481
      ESP Fit Center  166 is at   9.142715 -1.743398 -2.220481
      ESP Fit Center  167 is at   7.567715 -2.652725 -2.220481
      ESP Fit Center  168 is at   9.142715 -3.562051 -2.220481
      ESP Fit Center  169 is at   8.617715 -2.652725 -2.501827
      ESP Fit Center  170 is at   7.888040 -3.855137  1.747102
      ESP Fit Center  171 is at   8.938040 -3.855137  1.465755
      ESP Fit Center  172 is at   7.363040 -2.945810  1.465755
      ESP Fit Center  173 is at   7.363040 -4.764463  1.465755
      ESP Fit Center  174 is at   8.413040 -4.764463  1.465755
      ESP Fit Center  175 is at   8.938040 -3.855137 -2.171552
      ESP Fit Center  176 is at   7.363040 -2.945810 -2.171552
      ESP Fit Center  177 is at   7.363040 -4.764463 -2.171552
      ESP Fit Center  178 is at   8.413040 -4.764463 -2.171552
      ESP Fit Center  179 is at   7.888040 -3.855137 -2.452898
      ESP Fit Center  180 is at   5.916787 -2.725851  1.744255
      ESP Fit Center  181 is at   6.966787 -2.725851  1.462909
      ESP Fit Center  182 is at   5.391787 -3.635177  1.462909
      ESP Fit Center  183 is at   6.966787 -2.725851 -2.174398
      ESP Fit Center  184 is at   5.391787 -3.635177 -2.174398
      ESP Fit Center  185 is at   5.916787 -2.725851 -2.455745
      ESP Fit Center  186 is at   0.755013 -0.215933  2.705496
      ESP Fit Center  187 is at   0.230013 -1.125260  2.424149
      ESP Fit Center  188 is at  -0.435952 -1.590379  1.655496
      ESP Fit Center  189 is at  10.695145  3.305560  1.805597
      ESP Fit Center  190 is at  10.170145  2.396233  1.805597
      ESP Fit Center  191 is at  11.463799  3.305560  1.036944
      ESP Fit Center  192 is at  11.175094  4.288798  1.036944
      ESP Fit Center  193 is at  10.400641  4.959865  1.036944
      ESP Fit Center  194 is at  11.745145  3.305560 -0.013056
      ESP Fit Center  195 is at  11.504603  4.281478 -0.013056
      ESP Fit Center  196 is at  10.838081  5.033826 -0.013056
      ESP Fit Center  197 is at  11.463799  3.305560 -1.063056
      ESP Fit Center  198 is at  11.175094  4.288798 -1.063056
      ESP Fit Center  199 is at  10.400641  4.959865 -1.063056
      ESP Fit Center  200 is at   9.386324  5.105702 -1.063056
      ESP Fit Center  201 is at  10.695145  3.305560 -1.831710
      ESP Fit Center  202 is at  10.170145  4.214886 -1.831710
      ESP Fit Center  203 is at   9.120145  4.214886 -1.831710
      ESP Fit Center  204 is at   8.595145  3.305560 -1.831710
      ESP Fit Center  205 is at   9.645145  3.305560 -2.113056
      ESP Fit Center  206 is at   9.566137  2.001055  1.836734
      ESP Fit Center  207 is at  10.616137  2.001055  1.555387
      ESP Fit Center  208 is at  10.091137  1.091728  1.555387
      ESP Fit Center  209 is at   9.041137  2.910382 -2.081920
      ESP Fit Center  210 is at   8.516137  2.001055 -2.081920
      ESP Fit Center  211 is at  11.578662  1.252934  0.947484
      ESP Fit Center  212 is at  11.053662  0.343607  0.947484
      ESP Fit Center  213 is at  12.347316  1.252934  0.178830
      ESP Fit Center  214 is at  12.058611  2.236172  0.178830
      ESP Fit Center  215 is at  12.058611  0.269695  0.178830
      ESP Fit Center  216 is at  12.628662  1.252934 -0.871170
      ESP Fit Center  217 is at  12.388120  2.228852 -0.871170
      ESP Fit Center  218 is at  11.721598  2.981200 -0.871170
      ESP Fit Center  219 is at  12.388120  0.277015 -0.871170
      ESP Fit Center  220 is at  12.347316  1.252934 -1.921170
      ESP Fit Center  221 is at  12.058611  2.236172 -1.921170
      ESP Fit Center  222 is at  11.284158  2.907239 -1.921170
      ESP Fit Center  223 is at  12.058611  0.269695 -1.921170
      ESP Fit Center  224 is at  11.578662  1.252934 -2.689823
      ESP Fit Center  225 is at  11.053662  2.162260 -2.689823
      ESP Fit Center  226 is at  10.003662  2.162260 -2.689823
      ESP Fit Center  227 is at   9.478662  1.252934 -2.689823
      ESP Fit Center  228 is at  10.528662  1.252934 -2.971170
      ESP Fit Center  229 is at   6.543577 -3.931998  1.794154
      ESP Fit Center  230 is at   7.068577 -3.022671  1.512808
      ESP Fit Center  231 is at   5.493577 -3.931998  1.512808
      ESP Fit Center  232 is at   6.018577 -4.841325  1.512808
      ESP Fit Center  233 is at   7.068577 -4.841325  1.512808
      ESP Fit Center  234 is at   4.798592 -4.444372  0.744154
      ESP Fit Center  235 is at   5.352612 -5.306444  0.744154
      ESP Fit Center  236 is at   6.284755 -5.732140  0.744154
      ESP Fit Center  237 is at   7.299073 -5.586303  0.744154
      ESP Fit Center  238 is at   4.971704 -5.324555 -0.305846
      ESP Fit Center  239 is at   5.798906 -5.895532 -0.305846
      ESP Fit Center  240 is at   6.796704 -6.016687 -0.305846
      ESP Fit Center  241 is at   4.798592 -4.444372 -1.355846
      ESP Fit Center  242 is at   5.352612 -5.306444 -1.355846
      ESP Fit Center  243 is at   6.284755 -5.732140 -1.355846
      ESP Fit Center  244 is at   7.068577 -3.022671 -2.124499
      ESP Fit Center  245 is at   5.493577 -3.931998 -2.124499
      ESP Fit Center  246 is at   6.018577 -4.841325 -2.124499
      ESP Fit Center  247 is at   7.068577 -4.841325 -2.124499
      ESP Fit Center  248 is at   6.543577 -3.931998 -2.405846
      ESP Fit Center  249 is at   4.555298 -2.511453  1.780139
      ESP Fit Center  250 is at   5.080298 -1.602127  1.498792
      ESP Fit Center  251 is at   3.505298 -2.511453  1.498792
      ESP Fit Center  252 is at   4.030298 -3.420780  1.498792
      ESP Fit Center  253 is at   5.080298 -3.420780  1.498792
      ESP Fit Center  254 is at   3.505298 -2.511453 -2.138515
      ESP Fit Center  255 is at   4.030298 -3.420780 -2.138515
      ESP Fit Center  256 is at   4.555298 -2.511453 -2.419861
      ESP Fit Center  257 is at  -1.535709 -2.393355 -0.116106
      ESP Fit Center  258 is at  -0.687004 -3.009975 -0.116106
      ESP Fit Center  259 is at   0.362053 -3.009975 -0.116106
      ESP Fit Center  260 is at  -1.859885 -2.375643 -1.096106
      ESP Fit Center  261 is at  -1.142475 -3.093052 -1.096106
      ESP Fit Center  262 is at  -0.162475 -3.355643 -1.096106
      ESP Fit Center  263 is at   0.817525 -3.093052 -1.096106
      ESP Fit Center  264 is at   1.534934 -2.375643 -1.096106
      ESP Fit Center  265 is at  -1.859885 -1.395643 -2.076106
      ESP Fit Center  266 is at  -1.535709 -2.393355 -2.076106
      ESP Fit Center  267 is at  -0.687004 -3.009975 -2.076106
      ESP Fit Center  268 is at   0.362053 -3.009975 -2.076106
      ESP Fit Center  269 is at   1.210758 -2.393355 -2.076106
      ESP Fit Center  270 is at   0.817525 -1.395643 -2.793516
      ESP Fit Center  271 is at   0.327525 -0.546938 -2.793516
      ESP Fit Center  272 is at  -0.652475 -0.546938 -2.793516
      ESP Fit Center  273 is at  -1.142475 -1.395643 -2.793516
      ESP Fit Center  274 is at  -0.652475 -2.244348 -2.793516
      ESP Fit Center  275 is at   0.327525 -2.244348 -2.793516
      ESP Fit Center  276 is at  -0.162475 -1.395643 -3.056106
      ESP Fit Center  277 is at  -2.256135  0.197936  5.090948
      ESP Fit Center  278 is at  -1.276135  0.197936  4.828358
      ESP Fit Center  279 is at  -1.766135  1.046641  4.828358
      ESP Fit Center  280 is at  -2.746135  1.046641  4.828358
      ESP Fit Center  281 is at  -3.236135  0.197936  4.828358
      ESP Fit Center  282 is at  -2.746135 -0.650769  4.828358
      ESP Fit Center  283 is at  -1.766135 -0.650769  4.828358
      ESP Fit Center  284 is at  -0.558725  0.197936  4.110948
      ESP Fit Center  285 is at  -0.882902  1.195648  4.110948
      ESP Fit Center  286 is at  -1.731606  1.812268  4.110948
      ESP Fit Center  287 is at  -2.780663  1.812268  4.110948
      ESP Fit Center  288 is at  -3.629368  1.195648  4.110948
      ESP Fit Center  289 is at  -3.953545  0.197936  4.110948
      ESP Fit Center  290 is at  -3.629368 -0.799777  4.110948
      ESP Fit Center  291 is at  -2.780663 -1.416397  4.110948
      ESP Fit Center  292 is at  -1.731606 -1.416397  4.110948
      ESP Fit Center  293 is at  -0.882902 -0.799777  4.110948
      ESP Fit Center  294 is at  -0.296135  0.197936  3.130948
      ESP Fit Center  295 is at  -0.558725  1.177936  3.130948
      ESP Fit Center  296 is at  -3.236135  1.895345  3.130948
      ESP Fit Center  297 is at  -3.953545  1.177936  3.130948
      ESP Fit Center  298 is at  -4.216135  0.197936  3.130948
      ESP Fit Center  299 is at  -1.276135 -1.499474  3.130948
      ESP Fit Center  300 is at  -0.558725 -0.782064  3.130948
      ESP Fit Center  301 is at  -2.978265  1.502940 -1.509648
      ESP Fit Center  302 is at  -3.680795  0.665697 -1.509648
      ESP Fit Center  303 is at  -3.680795 -0.427245 -1.509648
      ESP Fit Center  304 is at  -2.978265 -1.264488 -1.509648
      ESP Fit Center  305 is at  -2.978265  0.699652 -2.349648
      ESP Fit Center  306 is at  -2.978265 -0.461200 -2.349648
      ESP Fit Center  307 is at  -1.874229 -0.819922 -2.349648
      ESP Fit Center  308 is at  -2.179377  0.119226 -2.670499
      ESP Fit Center  309 is at  -1.256139  2.552823  3.613558
      ESP Fit Center  310 is at  -0.268660  2.552823  3.292707
      ESP Fit Center  311 is at  -0.950991  3.491971  3.292707
      ESP Fit Center  312 is at  -2.055026  3.133248  3.292707
      ESP Fit Center  313 is at   0.341636  2.552823  2.452707
      ESP Fit Center  314 is at  -0.032172  3.579852  2.452707
      ESP Fit Center  315 is at  -0.978688  4.126324  2.452707
      ESP Fit Center  316 is at  -0.032172  1.525793  2.452707
      ESP Fit Center  317 is at   0.341636  2.552823  1.414410
      ESP Fit Center  318 is at  -0.032172  3.579852  1.414410
      ESP Fit Center  319 is at  -2.990691  2.583251  3.214962
      ESP Fit Center  320 is at  -2.685543  3.522400  2.894111
      ESP Fit Center  321 is at  -3.789578  3.163677  2.894111
      ESP Fit Center  322 is at  -3.789578  2.002826  2.894111
      ESP Fit Center  323 is at  -2.713240  4.156752  2.054111
      ESP Fit Center  324 is at  -3.789578  3.966965  2.054111
      ESP Fit Center  325 is at  -4.492108  3.129722  2.054111
      ESP Fit Center  326 is at  -3.789578  3.966965  1.015814
      ESP Fit Center  327 is at  -4.492108  3.129722  1.015814
      ESP Fit Center  328 is at  -0.146305  3.858859  1.304908
      ESP Fit Center  329 is at  -0.828637  4.798007  1.304908
      ESP Fit Center  330 is at  -1.932672  4.439284  1.304908
      ESP Fit Center  331 is at   0.463990  3.858859  0.464908
      ESP Fit Center  332 is at   0.090182  4.885889  0.464908
      ESP Fit Center  333 is at  -0.856334  5.432360  0.464908
      ESP Fit Center  334 is at  -1.932672  5.242572  0.464908
      ESP Fit Center  335 is at   0.463990  3.858859 -0.573389
      ESP Fit Center  336 is at   0.090182  4.885889 -0.573389
      ESP Fit Center  337 is at  -0.856334  5.432360 -0.573389
      ESP Fit Center  338 is at  -1.932672  5.242572 -0.573389
      ESP Fit Center  339 is at  -0.146305  3.858859 -1.413389
      ESP Fit Center  340 is at  -0.828637  4.798007 -1.413389
      ESP Fit Center  341 is at  -3.410600  4.516118 -0.166252
      ESP Fit Center  342 is at  -4.113129  3.678876 -0.166252
      ESP Fit Center  343 is at  -4.113129  2.585933 -0.166252
      ESP Fit Center  344 is at  -2.334261  4.705905 -1.204549
      ESP Fit Center  345 is at  -3.410600  4.516118 -1.204549
      ESP Fit Center  346 is at  -4.113129  3.678876 -1.204549
      ESP Fit Center  347 is at  -4.113129  2.585933 -1.204549
      ESP Fit Center  348 is at  -3.410600  1.748691 -1.204549
      ESP Fit Center  349 is at  -2.306564  4.071553 -2.044549
      ESP Fit Center  350 is at  -3.410600  3.712830 -2.044549
      ESP Fit Center  351 is at  -3.410600  2.551979 -2.044549
      ESP Fit Center  352 is at  -2.611712  3.132404 -2.365401
      ESP Fit Center  353 is at   0.452502  2.974101  0.573196
      ESP Fit Center  354 is at   1.745129  2.034952 -0.266804
      ESP Fit Center  355 is at   1.371321  3.061982 -0.266804
      ESP Fit Center  356 is at   1.745129  2.034952 -1.305101
      ESP Fit Center  357 is at   1.371321  3.061982 -1.305101
      ESP Fit Center  358 is at   0.424805  3.608453 -1.305101
      ESP Fit Center  359 is at   1.371321  1.007922 -1.305101
      ESP Fit Center  360 is at   1.134833  2.034952 -2.145101
      ESP Fit Center  361 is at   0.452502  2.974101 -2.145101
      ESP Fit Center  362 is at   0.496158  1.944913 -2.530554
      ESP Fit Center  363 is at   0.122349  2.971943 -2.530554
      ESP Fit Center  364 is at  -0.824167  3.518414 -2.530554
      ESP Fit Center  365 is at  -1.900505  3.328627 -2.530554
      ESP Fit Center  366 is at  -2.603035  2.491384 -2.530554
      ESP Fit Center  367 is at  -2.603035  1.398442 -2.530554
      ESP Fit Center  368 is at  -0.824167  0.371412 -2.530554
      ESP Fit Center  369 is at   0.122349  0.917883 -2.530554
      ESP Fit Center  370 is at  -0.114138  1.944913 -3.370554
      ESP Fit Center  371 is at  -0.796469  2.884062 -3.370554
      ESP Fit Center  372 is at  -1.900505  2.525339 -3.370554
      ESP Fit Center  373 is at  -1.900505  1.364487 -3.370554
      ESP Fit Center  374 is at  -0.796469  1.005765 -3.370554
      ESP Fit Center  375 is at  -1.101617  1.944913 -3.691406
      ESP Fit Center  376 is at   1.017457 -2.604170  2.101031
      ESP Fit Center  377 is at   2.121492 -2.962893  2.101031
      ESP Fit Center  378 is at   0.314927 -2.570216  1.261031
      ESP Fit Center  379 is at   1.017457 -3.407458  1.261031
      ESP Fit Center  380 is at   2.093795 -3.597246  1.261031
      ESP Fit Center  381 is at   3.040311 -3.050775  1.261031
      ESP Fit Center  382 is at   1.017457 -3.407458  0.222734
      ESP Fit Center  383 is at   2.093795 -3.597246  0.222734
      ESP Fit Center  384 is at   2.121492 -2.962893 -0.617266
      ESP Fit Center  385 is at   2.509783 -0.664986  3.287441
      ESP Fit Center  386 is at   3.497263 -0.664986  2.966590
      ESP Fit Center  387 is at   2.814931  0.274163  2.966590
      ESP Fit Center  388 is at   1.710896 -0.084560  2.966590
[...]
 2520 Fit      -0.033026
 2521 Fit      -0.036449
 2522 Fit      -0.020408
 2523 Fit      -0.028533
 2524 Fit      -0.034049
 2525 Fit      -0.036954
 2526 Fit      -0.019105
 2527 Fit      -0.027368
 2528 Fit      -0.033155
 2529 Fit      -0.035087
 2530 Fit      -0.016862
 2531 Fit      -0.025378
 2532 Fit      -0.030624
 2533 Fit      -0.030234
 2534 Fit      -0.024995
 2535 Fit      -0.017371
 2536 Fit      -0.013560
 2537 Fit      -0.014720
 2538 Fit      -0.023046
 2539 Fit      -0.025918
 2540 Fit      -0.021522
 2541 Fit      -0.017565
 2542 Fit      -0.020501
 2543 Fit      -0.014223
 2544 Fit      -0.013315
 2545 Fit      -0.011254
 2546 Fit      -0.016140
 2547 Fit      -0.016041
 2548 Fit      -0.007018
 2549 Fit      -0.016366
 2550 Fit      -0.019162
 2551 Fit      -0.015517
 2552 Fit      -0.010013
 2553 Fit      -0.020029
 2554 Fit      -0.020685
 2555 Fit      -0.014621
 2556 Fit      -0.019109
 2557 Fit      -0.022752
 2558 Fit      -0.018274
 2559 Fit      -0.020059
 2560 Fit      -0.023115
 2561 Fit      -0.018345
 2562 Fit      -0.014802
 2563 Fit      -0.021966
 2564 Fit      -0.021432
 2565 Fit      -0.014947
 2566 Fit      -0.020130
 2567 Fit      -0.020811
 2568 Fit      -0.018878
 2569 Fit      -0.017721
 2570 Fit      -0.019704
 2571 Fit      -0.018058
 2572 Fit      -0.018540
 2573 Fit       0.002552
 2574 Fit       0.002705
 2575 Fit       0.004192
 2576 Fit      -0.005522
 2577 Fit      -0.000692
 2578 Fit      -0.002191
 2579 Fit      -0.003110
 2580 Fit      -0.010543
 2581 Fit      -0.005254
 2582 Fit      -0.008953
 2583 Fit      -0.011016
 2584 Fit      -0.004999
 2585 Fit      -0.013777
 2586 Fit      -0.014935
 2587 Fit      -0.020447
 2588 Fit      -0.022254
 2589 Fit      -0.019613
 2590 Fit      -0.010693
 2591 Fit      -0.015776
 2592 Fit      -0.023182
 2593 Fit      -0.026040
 2594 Fit      -0.025650
 2595 Fit      -0.021784
 2596 Fit      -0.013572
 2597 Fit       0.001126
 2598 Fit      -0.017685
 2599 Fit      -0.024823
 2600 Fit      -0.027364
 2601 Fit      -0.026651
 2602 Fit      -0.022956
 2603 Fit      -0.016847
 2604 Fit      -0.011634
 2605 Fit      -0.012474
 2606 Fit      -0.020821
 2607 Fit      -0.025622
 2608 Fit      -0.023546
 2609 Fit      -0.020543
 2610 Fit      -0.027162
 2611 Fit      -0.024941
 2612 Fit      -0.024570
 2613 Fit      -0.025037
 2614 Fit      -0.026612
 2615 Fit      -0.027833
 2616 Fit      -0.026720
 2617 Fit      -0.019343
 2618 Fit      -0.018849
 2619 Fit      -0.019525
 2620 Fit      -0.020088
 2621 Fit      -0.020112
 2622 Fit      -0.020686
 2623 Fit      -0.023017
 2624 Fit      -0.025454
 2625 Fit      -0.025624
 2626 Fit      -0.024902
 2627 Fit      -0.023484
 2628 Fit      -0.021316
 2629 Fit      -0.008464
 2630 Fit      -0.007196
 2631 Fit      -0.008722
 2632 Fit      -0.012131
 2633 Fit      -0.011440
 2634 Fit      -0.010764
 2635 Fit      -0.012667
 2636 Fit      -0.017651
 2637 Fit      -0.015937
 2638 Fit      -0.012541
 2639 Fit      -0.001223
 2640 Fit      -0.004655
 2641 Fit      -0.006287
 2642 Fit       0.001478
 2643 Fit      -0.005844
 2644 Fit       0.002272
 2645 Fit      -0.011357
 2646 Fit       0.002040
 2647 Fit       0.005243
 2648 Fit      -0.000021
 2649 Fit       0.017775
 2650 Fit       0.016538
 2651 Fit       0.013889
 2652 Fit       0.010919
 2653 Fit       0.010376
 2654 Fit       0.026490
 2655 Fit       0.021976
 2656 Fit       0.019001
 2657 Fit       0.033755
 2658 Fit       0.003713
 2659 Fit      -0.001129
 2660 Fit       0.011568
 2661 Fit       0.011659
 2662 Fit       0.012351
 2663 Fit       0.015771
 2664 Fit       0.015380
 2665 Fit       0.016866
 2666 Fit       0.016535
 2667 Fit       0.016051
 2668 Fit       0.031256
 2669 Fit       0.024947
 2670 Fit       0.021283
 2671 Fit       0.019085
 2672 Fit       0.032490
 2673 Fit       0.026271
 2674 Fit       0.022525
 2675 Fit       0.019927
 2676 Fit       0.018036
 2677 Fit       0.025050
 2678 Fit       0.021726
 2679 Fit       0.019297
 2680 Fit       0.017338
 2681 Fit       0.022313
 2682 Fit       0.019521
 2683 Fit       0.017361
 2684 Fit       0.014439
 2685 Fit       0.012836
 2686 Fit       0.009037
 2687 Fit       0.014364
 2688 Fit       0.012491
 2689 Fit       0.009229
 2690 Fit       0.001733
 2691 Fit       0.014249
 2692 Fit       0.011866
 2693 Fit       0.007849
 2694 Fit       0.002291
 2695 Fit       0.006744
 2696 Fit       0.013596
 2697 Fit       0.010818
 2698 Fit       0.037414
 2699 Fit       0.032669
 2700 Fit       0.029996
 2701 Fit       0.026759
 2702 Fit       0.025338
 2703 Fit       0.020480
 2704 Fit       0.021035
 2705 Fit       0.013199
 2706 Fit       0.015904
 2707 Fit       0.016779
 2708 Fit       0.016486
 2709 Fit       0.015196
 2710 Fit       0.012388
 2711 Fit       0.009161
 2712 Fit       0.005922
 2713 Fit      -0.001000
 2714 Fit      -0.001809
 2715 Fit       0.007014
 2716 Fit       0.011341
 2717 Fit       0.013924
 2718 Fit       0.013608
 2719 Fit       0.010910
 2720 Fit       0.007367
 2721 Fit       0.006864
 2722 Fit       0.011006
 2723 Fit       0.007527
 2724 Fit       0.005154
 2725 Fit       0.009395
 2726 Fit       0.013208
 2727 Fit      -0.000982
 2728 Fit       0.002037
 2729 Fit       0.008907
 2730 Fit      -0.007498
 2731 Fit       0.006923
 2732 Fit       0.003829
 2733 Fit       0.013934
 2734 Fit       0.015591
 2735 Fit       0.019624
 2736 Fit       0.018007
 2737 Fit       0.010147
 2738 Fit       0.009993
 2739 Fit       0.012147
 2740 Fit       0.015078
 2741 Fit       0.021994
 2742 Fit       0.026558
 2743 Fit       0.030028
 2744 Fit       0.011181
 2745 Fit       0.010814
 2746 Fit       0.029970
 2747 Fit       0.035010
 2748 Fit       0.033389
 2749 Fit       0.037601
 2750 Fit       0.030451
 2751 Fit       0.034329
 2752 Fit       0.025160
 2753 Fit       0.028553
 2754 Fit       0.017987
 2755 Fit       0.020717
 2756 Fit       0.011355
 2757 Fit       0.013632
 2758 Fit      -0.006172
 2759 Fit       0.005220
 2760 Fit      -0.007859
 2761 Fit      -0.001748
 2762 Fit       0.002673
 2763 Fit       0.001401
 2764 Fit      -0.008921
 2765 Fit      -0.008496
 2766 Fit      -0.003541
 2767 Fit      -0.001898
 2768 Fit       0.032846
 2769 Fit       0.019019
 2770 Fit       0.006575
 2771 Fit       0.012036
 2772 Fit       0.015099
 2773 Fit       0.000982
 2774 Fit       0.005096
 2775 Fit       0.021261
 2776 Fit       0.014278
 2777 Fit       0.028885
 2778 Fit       0.022883
 2779 Fit       0.012687
 2780 Fit       0.005176
 2781 Fit       0.033630
 2782 Fit       0.018407
 2783 Fit       0.019105
 2784 Fit       0.022176
 2785 Fit       0.023071
 2786 Fit       0.020436
 2787 Fit       0.024333
 2788 Fit       0.025269
 2789 Fit       0.026712
 2790 Fit       0.027706
 2791 Fit       0.027143
 2792 Fit       0.026432
 2793 Fit       0.026382
 2794 Fit       0.028081
 2795 Fit       0.030532
 2796 Fit       0.032626
 2797 Fit       0.026508
 2798 Fit       0.025601
 2799 Fit       0.027399
 2800 Fit       0.030429
 2801 Fit       0.014111
 2802 Fit       0.020196
 2803 Fit       0.007162
 2804 Fit       0.013645
 2805 Fit       0.018729
 2806 Fit       0.023659
 2807 Fit      -0.000184
 2808 Fit       0.008439
 2809 Fit       0.014271
 2810 Fit       0.018605
 2811 Fit       0.022644
 2812 Fit       0.004796
 2813 Fit       0.011594
 2814 Fit       0.016095
 2815 Fit       0.019644
 2816 Fit       0.004519
 2817 Fit       0.011009
 2818 Fit       0.014708
 2819 Fit      -0.008138
 2820 Fit       0.008130
 2821 Fit       0.001233
 2822 Fit      -0.006015
 2823 Fit       0.006771
 2824 Fit       0.001913
 2825 Fit      -0.004631
 2826 Fit       0.001633
 2827 Fit       0.004471
 2828 Fit       0.002004
 2829 Fit      -0.004388
 2830 Fit      -0.002541
 2831 Fit       0.000151
 2832 Fit      -0.005414
 2833 Fit      -0.003661
 2834 Fit       0.000976
 2835 Fit       0.002274
 2836 Fit       0.004919
 2837 Fit       0.006082
 2838 Fit       0.005503
 2839 Fit       0.008869
 2840 Fit       0.006751
 2841 Fit       0.007058
 2842 Fit       0.005917
 2843 Fit      -0.004274
 2844 Fit      -0.006478
 2845 Fit      -0.000961
 2846 Fit       0.001423
 2847 Fit       0.006678
 2848 Fit      -0.007090
 2849 Fit      -0.000875
 2850 Fit       0.002417
 2851 Fit       0.004354
 2852 Fit      -0.007102
 2853 Fit      -0.000888
 2854 Fit       0.002477
 2855 Fit       0.004605
 2856 Fit      -0.006539
 2857 Fit      -0.000934
 2858 Fit       0.001832
 2859 Fit      -0.004238
 2860 Fit       0.007986
 2861 Fit       0.023243
 2862 Fit       0.034925
 2863 Fit       0.033093
 2864 Fit       0.039082
 2865 Fit       0.038819
 2866 Fit       0.011438
 2867 Fit       0.014915
 2868 Fit       0.005902
 2869 Fit       0.012846
 2870 Fit       0.005702
 2871 Fit       0.007779
 2872 Fit       0.009158
 2873 Fit       0.003263
 2874 Fit       0.001690
 2875 Fit       0.004651
 2876 Fit      -0.001024
 2877 Fit       0.013200
 2878 Fit       0.008518
 2879 Fit       0.010496
 2880 Fit       0.012281
 2881 Fit       0.014145
 2882 Fit       0.008064
 2883 Fit       0.008037
 2884 Fit       0.009266
 2885 Fit       0.010562
 2886 Fit       0.011080
 2887 Fit       0.010303
 2888 Fit       0.008679
 2889 Fit       0.009066
 2890 Fit       0.009329
 2891 Fit       0.010145
 2892 Fit       0.010814
 2893 Fit       0.010285
 2894 Fit       0.010169
 2895 Fit       0.011009
 2896 Fit       0.010609
 2897 Fit       0.010198
 2898 Fit       0.010596
 2899 Fit       0.010470
 2900 Fit       0.002999
 2901 Fit       0.008292
 2902 Fit       0.008573
 2903 Fit       0.007699
 2904 Fit       0.007124
 2905 Fit       0.008156
 2906 Fit       0.010130
 2907 Fit       0.010455
 2908 Fit       0.010624
 2909 Fit       0.010610
 2910 Fit       0.008267
 2911 Fit       0.008807
 2912 Fit       0.000213
 2913 Fit      -0.001750
 2914 Fit      -0.002331
 2915 Fit       0.003144
 2916 Fit      -0.007581
 2917 Fit      -0.011205
 2918 Fit      -0.008706
 2919 Fit       0.001190
 2920 Fit      -0.010270
 2921 Fit      -0.015041
 2922 Fit      -0.014728
 2923 Fit      -0.009245
 2924 Fit      -0.003555
 2925 Fit      -0.013088
 2926 Fit      -0.016850
 2927 Fit      -0.016038
 2928 Fit      -0.010025
 2929 Fit      -0.010050
 2930 Fit      -0.015661
 2931 Fit      -0.015105
 2932 Fit      -0.009162
 2933 Fit      -0.012999
 2934 Fit      -0.009152
 2935 Fit      -0.006265
 2936 Fit      -0.005422
 2937 Fit       0.013080
 2938 Fit       0.014670
 2939 Fit       0.014828
 2940 Fit       0.016730
 2941 Fit      -0.003727
 2942 Fit       0.013392
 2943 Fit       0.001048
 2944 Fit       0.000035
 2945 Fit       0.001823
 2946 Fit       0.000724
 2947 Fit      -0.003860
 2948 Fit      -0.007024
 2949 Fit      -0.009326
 2950 Fit      -0.010439
 2951 Fit      -0.016070
 2952 Fit      -0.025401
 2953 Fit      -0.023337
 2954 Fit      -0.018084
 2955 Fit      -0.014589
 2956 Fit      -0.006988
 2957 Fit      -0.018000
 2958 Fit      -0.023076
 2959 Fit      -0.021825
 2960 Fit      -0.018318
 2961 Fit      -0.019631
 2962 Fit       0.016506
 2963 Fit       0.016965
 2964 Fit       0.006190
 2965 Fit       0.009176
 2966 Fit      -0.004341
 2967 Fit      -0.000937
 2968 Fit       0.002082
 2969 Fit       0.007361
 2970 Fit      -0.001211
 2971 Fit      -0.002525
 2972 Fit      -0.003435
 2973 Fit      -0.000472
 2974 Fit      -0.007366
 2975 Fit       0.002317
 2976 Fit       0.002737
 2977 Fit       0.004625
 2978 Fit       0.003924
 2979 Fit       0.003666
 2980 Fit      -0.006598
 2981 Fit      -0.003691
 2982 Fit      -0.008047
 2983 Fit       0.000115
 2984 Fit       0.001468
 2985 Fit      -0.000563
 2986 Fit      -0.000192
 2987 Fit       0.003774
 2988 Fit       0.003966
 2989 Fit       0.001833
 2990 Fit      -0.015352
 2991 Fit      -0.008099
 2992 Fit       0.002739
 2993 Fit       0.004761
 2994 Fit       0.003936
 2995 Fit       0.001534
 2996 Fit      -0.003174
 2997 Fit      -0.001326
 2998 Fit       0.003508
 2999 Fit       0.003946
 3000 Fit       0.002405
 3001 Fit       0.001793
 3002 Fit       0.003205
 3003 Fit       0.018377
 3004 Fit       0.018752
 3005 Fit       0.015745
 3006 Fit       0.016871
 3007 Fit       0.015330
 3008 Fit       0.010402
 3009 Fit       0.011824
 3010 Fit       0.009317
 3011 Fit       0.013316
 3012 Fit       0.014712
 3013 Fit       0.013225
 3014 Fit       0.011193
 3015 Fit       0.012187
 3016 Fit       0.013301
 3017 Fit       0.013761
 3018 Fit       0.006896
 3019 Fit       0.009489
 3020 Fit       0.011628
 3021 Fit       0.012617
 3022 Fit       0.012695
 3023 Fit       0.012796
 3024 Fit       0.015077
 3025 Fit       0.005594
 3026 Fit       0.008929
 3027 Fit       0.010704
 3028 Fit       0.011328
 3029 Fit       0.011144
 3030 Fit       0.010762
 3031 Fit       0.011760
 3032 Fit       0.007770
 3033 Fit       0.009149
 3034 Fit       0.009445
 3035 Fit       0.008982
 3036 Fit       0.008405
 3037 Fit      -0.001242
 3038 Fit       0.005419
 3039 Fit       0.008153
 3040 Fit       0.002176
 3041 Fit       0.007235
 3042 Fit       0.009174
 3043 Fit       0.009336
 3044 Fit       0.001159
 3045 Fit       0.006965
 3046 Fit       0.009671
 3047 Fit       0.010228
 3048 Fit       0.007788
 3049 Fit       0.006508
 3050 Fit       0.009422
 3051 Fit       0.010512
 3052 Fit       0.009885
 3053 Fit       0.011215
 3054 Fit       0.003266
 3055 Fit       0.007052
 3056 Fit       0.008124
 3057 Fit       0.006099
 3058 Fit      -0.000439
 3059 Fit       0.004246
 3060 Fit       0.006905
 3061 Fit       0.007612
 3062 Fit       0.006147
 3063 Fit       0.001852
 3064 Fit      -0.006249
 3065 Fit      -0.000122
 3066 Fit       0.003987
 3067 Fit       0.006493
 3068 Fit       0.007272
 3069 Fit       0.006265
 3070 Fit       0.003514
 3071 Fit      -0.000091
 3072 Fit       0.002407
 3073 Fit       0.005267
 3074 Fit       0.006301
 3075 Fit       0.005470
 3076 Fit       0.003691
 3077 Fit       0.002303
 3078 Fit       0.004537
 3079 Fit       0.004386
 3080 Fit       0.001215
 3081 Fit       0.004180
 3082 Fit       0.009278
 3083 Fit       0.010563
 3084 Fit       0.005880
 3085 Fit      -0.003497
 3086 Fit       0.004613
 3087 Fit       0.006251
 3088 Fit       0.008414
 3089 Fit       0.008162
 3090 Fit       0.004357
 3091 Fit      -0.000017
 3092 Fit       0.006228
 3093 Fit       0.007213
 3094 Fit       0.005289
 3095 Fit       0.005523
 3096 Fit       0.009888
 3097 Fit       0.021183
 3098 Fit      -0.008391
 3099 Fit      -0.015460
 3100 Fit      -0.008504
 3101 Fit       0.001333
 3102 Fit      -0.007511
 3103 Fit      -0.013166
 3104 Fit      -0.006578
 3105 Fit       0.003036
 3106 Fit      -0.005689
 3107 Fit      -0.011297
 3108 Fit      -0.012802
 3109 Fit       0.003018
 3110 Fit      -0.005225
 3111 Fit      -0.010128
 3112 Fit      -0.010683
 3113 Fit       0.007997
 3114 Fit      -0.001828
 3115 Fit      -0.007694
 3116 Fit      -0.009231
 3117 Fit      -0.006695
 3118 Fit       0.004988
 3119 Fit      -0.003972
 3120 Fit      -0.007810
 3121 Fit      -0.007666
 3122 Fit      -0.004374
 3123 Fit       0.002204
 3124 Fit      -0.006137
 3125 Fit      -0.008340
 3126 Fit      -0.006458
 3127 Fit      -0.000792
 3128 Fit      -0.008561
 3129 Fit      -0.009905
 3130 Fit      -0.007301
 3131 Fit      -0.005067
 3132 Fit      -0.011903
 3133 Fit      -0.013146
 3134 Fit      -0.010724
 3135 Fit      -0.022505
 3136 Fit      -0.017635
 3137 Fit      -0.019397
 3138 Fit       0.006144
 3139 Fit       0.012490
 3140 Fit       0.015532
 3141 Fit       0.016330
 3142 Fit       0.017760
 3143 Fit       0.019528
 3144 Fit       0.020381
 3145 Fit       0.018990
 3146 Fit       0.020100
 3147 Fit       0.017196
 3148 Fit       0.020298
 3149 Fit       0.008968
 3150 Fit       0.003209
 3151 Fit       0.009994
 3152 Fit       0.012969
 3153 Fit       0.012559
 3154 Fit       0.009403
 3155 Fit       0.003094
 3156 Fit       0.016496
 3157 Fit       0.015159
 3158 Fit       0.014018
 3159 Fit       0.012189
 3160 Fit       0.006394
 3161 Fit       0.014834
 3162 Fit       0.015357
 3163 Fit       0.018039
 3164 Fit       0.015992
 3165 Fit       0.023308
 3166 Fit       0.018845
 3167 Fit       0.014418
 3168 Fit       0.009590
 3169 Fit       0.009611
 3170 Fit       0.020732
 3171 Fit       0.018326
 3172 Fit       0.012997
 3173 Fit      -0.022527
 3174 Fit      -0.016419
 3175 Fit      -0.011830
 3176 Fit      -0.013696
 3177 Fit      -0.006657
 3178 Fit      -0.006444
 3179 Fit      -0.011216
 3180 Fit      -0.005587
 3181 Fit      -0.003177
 3182 Fit      -0.002640
 3183 Fit      -0.001998
 3184 Fit      -0.001904
 3185 Fit      -0.003965
 3186 Fit      -0.005460
 3187 Fit      -0.011171
 3188 Fit      -0.006960
 3189 Fit      -0.014918
 3190 Fit      -0.007875
 3191 Fit      -0.004351
 3192 Fit      -0.006478
 3193 Fit       0.005794
 3194 Fit       0.013728
 3195 Fit       0.020070
 3196 Fit       0.016484
 -----------------------------------------------------------------
 Leave Link  602 at Tue Aug 20 18:05:02 2024, MaxMem=   104857600 cpu:               1.0 elap:               1.0

 Test job not archived.
 1\1\GINC-PPCP72496\SP\RHF\6-31G(d)\C29H35N9O4S1\PCZBF\20-Aug-2024\0\\#
  HF 6-31G* POP(MK) IOP(6/33=2) scf=direct\\cap\\0,1\C,0,15.442,1.525,-
 26.601\C,0,15.778,2.912,-26.028\C,0,13.375,3.678,-25.754\C,0,13.266,4.
 466,-27.077\C,0,13.867,5.915,-26.927\C,0,15.057,3.937,-23.965\C,0,16.5
 76,3.778,-23.909\C,0,16.917,2.782,-24.998\C,0,14.565,-0.74,-26.122\C,0
 ,15.892,-1.518,-26.157\C,0,15.742,-2.993,-26.308\C,0,16.246,-3.973,-25
 .5\C,0,15.839,-5.239,-26.046\C,0,15.975,-6.612,-25.701\C,0,16.597,-7.0
 81,-24.443\C,0,16.697,-6.55,-23.132\C,0,16.144,-5.35,-22.62\C,0,16.486
 ,-5.042,-21.287\C,0,17.307,-5.93,-20.557\C,0,17.287,-8.316,-24.243\C,0
 ,15.5,-7.566,-26.627\C,0,14.875,-7.149,-27.817\C,0,15.152,-4.963,-27.2
 64\N,0,14.647,3.525,-25.305\N,0,14.816,0.656,-25.787\N,0,17.764,-7.119
 ,-21.025\N,0,17.432,-7.359,-22.291\N,0,17.763,-8.476,-22.997\N,0,14.66
 3,-5.863,-28.159\N,0,15.071,-3.59,-27.36\O,0,15.759,1.255,-27.757\O,0,
 12.407,3.686,-24.992\H,0,16.096,3.579,-26.83\H,0,14.58,3.282,-23.233\H
 ,0,14.775,4.971,-23.76\H,0,16.934,3.473,-22.926\H,0,17.046,4.729,-24.1
 59\H,0,16.956,1.786,-24.556\H,0,17.895,2.972,-25.44\H,0,14.04,-0.811,-
 27.075\H,0,13.903,-1.152,-25.36\H,0,16.44,-1.316,-25.235\H,0,16.525,-1
 .142,-26.959\H,0,16.848,-3.812,-24.618\H,0,15.496,-4.711,-23.191\H,0,1
 6.111,-4.141,-20.821\H,0,17.56,-5.708,-19.529\H,0,17.465,-9.104,-24.96
 \H,0,15.599,-8.623,-26.431\H,0,14.526,-7.888,-28.521\H,0,14.619,0.935,
 -24.828\H,0,14.6,-3.082,-28.101\H,0,14.454,10.962,-31.609\C,0,14.082,1
 2.076,-30.723\C,0,14.334,11.72,-29.254\O,0,14.934,12.525,-28.547\N,0,1
 3.923,10.496,-28.837\C,0,14.194,9.902,-27.512\C,0,15.685,9.526,-27.382
 \O,0,16.035,8.356,-27.485\N,0,16.512,10.562,-27.176\C,0,17.951,10.676,
 -27.387\H,0,18.756,9.412,-27.075\H,0,13.504,9.869,-29.514\H,0,16.061,1
 1.451,-27.005\H,0,12.623,12.537,-31.023\H,0,14.74,12.914,-30.959\H,0,1
 8.491,11.938,-26.662\H,0,18.076,10.846,-28.459\C,0,13.209,8.766,-27.06
 4\S,0,13.111,7.191,-28.016\H,0,13.405,8.521,-26.02\H,0,12.199,9.178,-2
 7.068\H,0,14.031,10.708,-26.794\H,0,12.207,4.523,-27.323\H,0,13.718,3.
 907,-27.892\H,0,14.938,5.867,-27.125\H,0,13.75,6.283,-25.906\\Version=
 ES64L-G16RevA.03\State=1-A\HF=-2305.2222267\RMSD=4.784e-09\Dipole=-0.1
 245348,2.8792261,1.1323193\Quadrupole=-1.5749125,-18.8514836,20.426396
 2,12.8428906,2.7906314,0.7680543\PG=C01 [X(C29H35N9O4S1)]\\@


 FROM AN ANONYMOUS WRITER, ON PERSPECTIVE:

 MAN, DESPITE HIS ARTISTIC PRETENSIONS, HIS SOPHISTICATION AND MANY 
 ACCOMPLISHMENTS, OWES THE FACT OF HIS EXISTENCE TO A SIX-INCH LAYER OF 
 TOPSOIL AND THE FACT THAT IT RAINS.
 Job cpu time:       0 days  0 hours  5 minutes 55.9 seconds.
 Elapsed time:       0 days  0 hours  5 minutes 55.9 seconds.
 File lengths (MBytes):  RWF=    280 Int=      0 D2E=      0 Chk=     31 Scr=      1
 Normal termination of Gaussian 16 at Tue Aug 20 18:05:02 2024.
